/*--------------------------------*- C++ -*----------------------------------*\
| =========                 |                                                 |
| \\      /  F ield         | OpenFOAM: The Open Source CFD Toolbox           |
|  \\    /   O peration     | Version:  plus                                  |
|   \\  /    A nd           | Website:  www.openfoam.com                      |
|    \\/     M anipulation  |                                                 |
\*---------------------------------------------------------------------------*/
FoamFile
{
    version     2.0;
    format      ascii;
    class       volScalarField;
    location    "200";
    object      epsilon;
}
// * * * * * * * * * * * * * * * * * * * * * * * * * * * * * * * * * * * * * //

dimensions      [0 2 -3 0 0 0 0];


internalField   nonuniform List<scalar> 
12225
(
1643.7
2838.78
3793.51
4451.85
4862.38
5092.55
5200.48
5229.38
5209.18
5159.75
5093.94
5019.94
4942.84
4865.81
4790.74
4718.62
4649.27
4589.71
169.179
319.166
440.96
539.341
612.017
661.614
693.553
713.126
724.509
730.712
733.803
735.155
735.655
735.865
736.163
737.003
740.631
746.292
38.9335
67.8431
93.1285
114.933
133.013
147.308
158.203
166.272
172.107
176.235
179.102
181.063
182.396
183.31
183.97
184.529
185.188
185.641
20.1657
27.6332
35.0376
41.8932
48.007
53.2837
57.7265
61.3986
64.3889
66.7934
68.7056
70.2113
71.3859
72.2944
72.9921
73.5271
73.9344
74.1803
16.1468
18.4423
21.0407
23.6449
26.1168
28.3821
30.4088
32.1917
33.7407
35.0731
36.2099
37.1728
37.9832
38.6613
39.2253
39.691
40.0698
40.3578
15.0836
15.7459
16.6607
17.6889
18.7436
19.7708
20.7391
21.6325
22.4445
23.1743
23.8246
24.3999
24.9058
25.3485
25.7338
26.0671
26.3527
26.5889
14.791
14.8903
15.1342
15.4783
15.8818
16.3128
16.7483
17.173
17.5775
17.9564
18.3067
18.6276
18.9192
19.1824
19.4187
19.6295
19.816
19.9763
14.713
14.6254
14.6056
14.6468
14.7366
14.8614
15.0086
15.1683
15.333
15.497
15.6565
15.8089
15.9526
16.0866
16.2104
16.3239
16.4268
16.5174
14.6933
14.5488
14.4344
14.3516
14.2987
14.272
14.2668
14.2782
14.302
14.3346
14.3728
14.4143
14.4573
14.5004
14.5424
14.5827
14.6205
14.6543
14.6884
14.5283
14.3837
14.256
14.1454
14.0515
13.973
13.9083
13.8555
13.8128
13.7785
13.7511
13.7291
13.7116
13.6974
13.6858
13.676
13.6672
14.6872
14.5231
14.3699
14.2278
14.0969
13.977
13.8679
13.7689
13.6793
13.5985
13.5255
13.4596
13.3999
13.3458
13.2965
13.2515
13.2103
13.1724
14.6869
14.5218
14.3665
14.2206
14.0838
13.9558
13.8363
13.725
13.6214
13.5252
13.4357
13.3527
13.2755
13.2037
13.1369
13.0747
13.0166
12.9628
14.6867
14.5213
14.3653
14.2183
14.0796
13.9488
13.8256
13.7095
13.6003
13.4974
13.4006
13.3096
13.2239
13.1433
13.0674
12.9959
12.9285
12.8656
14.6866
14.521
14.3648
14.2174
14.0781
13.9464
13.822
13.7043
13.5929
13.4876
13.3879
13.2935
13.2042
13.1195
13.0394
12.9634
12.8914
12.8239
14.6865
14.5208
14.3645
14.2169
14.0774
13.9455
13.8206
13.7025
13.5905
13.4844
13.3838
13.2884
13.1978
13.1118
13.0301
12.9525
12.8788
12.8095
14.6864
14.5207
14.3643
14.2165
14.0769
13.9449
13.8199
13.7016
13.5894
13.4831
13.3822
13.2865
13.1956
13.1092
13.0271
12.949
12.8748
12.8049
14.6863
14.5206
14.3641
14.2163
14.0766
13.9445
13.8194
13.7009
13.5887
13.4823
13.3813
13.2854
13.1943
13.1078
13.0255
12.9473
12.8729
12.8029
14.6863
14.5205
14.364
14.2161
14.0764
13.9442
13.819
13.7005
13.5882
13.4817
13.3806
13.2846
13.1935
13.1069
13.0245
12.9462
12.8717
12.8016
14.6863
14.5205
14.364
14.2161
14.0763
13.9441
13.8189
13.7004
13.588
13.4814
13.3803
13.2843
13.1931
13.1064
13.024
12.9456
12.8711
12.801
14.6863
14.5205
14.364
14.2162
14.0764
13.9442
13.8191
13.7006
13.5882
13.4817
13.3806
13.2846
13.1935
13.1069
13.0245
12.9462
12.8718
12.8017
14.6864
14.5206
14.3642
14.2164
14.0768
13.9447
13.8197
13.7014
13.5893
13.4831
13.3824
13.2869
13.1963
13.1103
13.0287
12.9511
12.8775
12.8083
14.6865
14.5209
14.3647
14.2173
14.0783
13.9472
13.8236
13.707
13.5971
13.4934
13.3958
13.3037
13.2168
13.1349
13.0577
12.9848
12.916
12.8518
14.6868
14.522
14.3678
14.2239
14.0903
13.9665
13.8524
13.7473
13.6507
13.562
13.4807
13.406
13.3374
13.2743
13.2161
13.1626
13.1131
13.068
14.6891
14.5322
14.3938
14.2747
14.1749
14.0931
14.0277
13.9765
13.9375
13.9085
13.8879
13.874
13.8654
13.8609
13.8597
13.8608
13.8637
13.8682
14.7097
14.6115
14.5712
14.5832
14.6384
14.7266
14.8383
14.9654
15.1014
15.2414
15.3817
15.5195
15.6529
15.7806
15.9018
16.016
16.1231
16.2231
14.8667
15.1128
15.5318
16.0582
16.6432
17.2509
17.8567
18.4444
19.0045
19.5313
20.022
20.4756
20.8926
21.2739
21.6214
21.9369
22.2224
22.4804
15.8907
17.7958
19.9875
22.2253
24.4046
26.4661
28.3792
30.1318
31.7218
33.1531
34.4329
35.5709
36.5777
37.4647
38.2428
38.9227
39.514
40.0272
22.4261
32.2528
41.4499
49.9323
57.7362
64.798
71.09
76.6255
81.4398
85.5821
89.1112
92.0911
94.5867
96.6606
98.3703
99.7661
100.887
101.755
73.4438
128.649
175.848
218.781
257.771
292.045
321.342
345.829
365.9
382.066
394.882
404.893
412.6
418.439
422.781
425.921
428.057
429.219
819.185
1245.04
1627.87
1947.98
2235.57
2483.72
2690.29
2856.67
2986.38
3084.02
3154.48
3202.43
3232.1
3247.18
3250.79
3245.53
3233.53
3216.38
0.36309
0.287841
0.395975
0.488476
0.59178
0.699417
0.827734
1.01784
1.26096
1.55919
1.90955
2.30965
2.75817
3.25432
3.79759
4.38762
5.02416
5.7071
6.43651
7.21261
8.03581
8.90672
9.82611
10.795
11.8144
12.8858
14.0107
15.1908
16.4281
17.7246
19.0829
20.5056
21.9957
23.5568
25.1929
26.9087
28.7099
30.6035
32.5979
34.704
36.9354
39.3102
41.8517
44.5308
47.3391
50.2807
53.3605
56.5835
59.9544
63.4781
67.1594
71.0031
75.0138
79.1962
83.5547
88.0936
92.8173
97.7298
102.835
108.137
113.638
119.342
125.253
131.372
137.702
144.244
151.002
157.975
165.164
172.571
180.194
188.033
196.088
204.356
212.835
221.523
230.416
239.51
248.801
258.283
267.95
277.794
287.809
297.985
308.312
318.781
329.379
340.093
350.911
361.818
372.798
383.835
394.913
406.015
417.125
428.228
439.311
450.364
461.386
472.384
483.384
494.436
505.47
516.331
527.004
537.472
547.716
557.717
567.454
576.909
586.06
594.889
603.373
611.494
619.23
626.561
633.468
639.931
645.931
651.449
656.469
660.974
664.948
668.377
671.248
673.549
675.269
676.399
676.932
676.864
676.193
674.916
673.036
670.554
667.478
663.815
659.579
654.779
649.431
643.553
637.167
630.293
622.953
615.174
606.987
598.418
589.495
580.255
570.729
560.942
550.936
540.745
530.395
519.933
509.375
498.771
488.155
477.492
467.058
457.067
448.971
442.888
437.055
431.233
425.476
419.792
414.183
408.665
403.256
397.967
392.802
387.764
382.845
378.023
373.247
368.403
363.263
357.263
349.359
336.086
0.999643
0.51964
0.478388
0.53522
0.628924
0.749754
0.897959
1.07684
1.28608
1.52377
1.78762
2.07584
2.38726
2.72109
3.07679
3.45399
3.85249
4.27228
4.71349
5.17645
5.66163
6.16963
6.70119
7.25715
7.83849
8.44624
9.08156
9.7457
10.44
11.1658
11.9248
12.7185
13.5488
14.4175
15.3268
16.2789
17.2762
18.3213
19.417
20.5661
21.7713
23.0348
24.358
25.74
27.1815
28.6839
30.249
31.8784
33.5738
35.3369
37.1694
39.0727
41.0484
43.098
45.2228
47.4242
49.7034
52.0615
54.4996
57.0187
59.6194
62.3026
65.0687
67.9182
70.8514
73.8682
76.9688
80.1527
83.4196
86.7689
90.1997
93.7109
97.3013
100.97
104.714
108.532
112.422
116.382
120.409
124.5
128.651
132.86
137.123
141.435
145.793
150.193
154.629
159.098
163.593
168.111
172.646
177.192
181.746
186.302
190.856
195.405
199.945
204.477
209.001
213.52
218.041
222.573
227.126
231.623
236.049
240.397
244.66
248.83
252.901
256.864
260.712
264.437
268.033
271.49
274.801
277.959
280.956
283.784
286.436
288.904
291.182
293.263
295.14
296.808
298.26
299.491
300.497
301.272
301.814
302.119
302.185
302.011
301.595
300.937
300.039
298.902
297.529
295.923
294.089
292.031
289.757
287.273
284.588
281.709
278.646
275.411
272.013
268.464
264.776
260.96
257.029
252.997
248.874
244.676
240.412
236.097
231.748
227.318
222.989
218.801
214.987
211.608
208.352
205.145
201.988
198.88
195.825
192.829
189.897
187.034
184.244
181.529
178.891
176.328
173.834
171.399
168.997
166.586
164.166
163.147
1.73236
0.858954
0.763807
0.797415
0.884401
1.00812
1.16367
1.3487
1.56058
1.79636
2.05334
2.32958
2.62384
2.93543
3.26401
3.60952
3.97207
4.35193
4.74954
5.16542
5.60023
6.05473
6.52974
7.02618
7.54503
8.08731
8.65413
9.24661
9.86596
10.5134
11.1903
11.8979
12.6378
13.4112
14.2198
15.065
15.9485
16.8718
17.8364
18.8438
19.8953
20.992
22.135
23.3252
24.5635
25.8514
27.19
28.5807
30.0247
31.5233
33.0777
34.689
36.3585
38.0871
39.8759
41.7258
43.6378
45.6128
47.6513
49.7541
51.9218
54.1549
56.4536
58.8183
61.249
63.7458
66.3085
68.9367
71.6302
74.3882
77.2099
80.0946
83.041
86.0478
89.1138
92.2371
95.4161
98.6488
101.933
105.266
108.647
112.071
115.537
119.042
122.583
126.156
129.758
133.386
137.037
140.707
144.393
148.092
151.799
155.512
159.228
162.943
166.656
170.365
174.068
177.765
181.455
185.14
188.799
192.41
195.965
199.455
202.877
206.224
209.49
212.669
215.755
218.743
221.627
224.399
227.055
229.588
231.992
234.261
236.39
238.372
240.203
241.876
243.387
244.731
245.903
246.899
247.715
248.348
248.794
249.052
249.118
248.993
248.675
248.164
247.461
246.566
245.483
244.213
242.759
241.127
239.321
237.347
235.211
232.919
230.479
227.9
225.19
222.357
219.411
216.362
213.218
209.992
206.688
203.324
199.897
196.423
192.943
189.434
185.969
182.581
179.349
176.301
173.346
170.448
167.601
164.804
162.06
159.374
156.749
154.189
151.698
149.277
146.931
144.662
142.474
140.371
138.365
136.485
134.843
134.195
2.44816
1.23394
1.06312
1.07356
1.15279
1.27488
1.43112
1.61698
1.82889
2.06362
2.31843
2.59133
2.881
3.18674
3.50828
3.84567
4.19918
4.56923
4.95636
5.36125
5.78464
6.22733
6.69021
7.17421
7.68029
8.20947
8.76281
9.34138
9.94631
10.5788
11.2399
11.9309
12.6531
13.4076
14.1958
15.0189
15.8782
16.7749
17.7104
18.6858
19.7022
20.7607
21.8625
23.0086
24.2003
25.4388
26.7252
28.061
29.4472
30.8852
32.376
33.921
35.5212
37.1777
38.8915
40.6638
42.4954
44.3872
46.3401
48.3547
50.4319
52.572
54.7757
57.0433
59.375
61.7709
64.2311
66.7553
69.3433
71.9947
74.7088
77.4849
80.3219
83.2189
86.1744
89.1872
92.2555
95.3776
98.5516
101.775
105.047
108.364
111.723
115.124
118.561
122.034
125.539
129.073
132.633
136.217
139.82
143.44
147.074
150.717
154.367
158.021
161.674
165.325
168.97
172.605
176.228
179.829
183.391
186.903
190.357
193.747
197.068
200.314
203.478
206.555
209.54
212.426
215.208
217.879
220.435
222.868
225.174
227.347
229.38
231.27
233.009
234.594
236.02
237.282
238.375
239.297
240.044
240.612
240.998
241.201
241.219
241.051
240.697
240.156
239.43
238.519
237.426
236.155
234.709
233.091
231.307
229.362
227.264
225.017
222.63
220.112
217.47
214.711
211.848
208.888
205.836
202.711
199.506
196.252
192.959
189.634
186.299
182.955
179.638
176.371
173.195
170.124
167.128
164.191
161.306
158.476
155.702
152.989
150.339
147.757
145.246
142.809
140.451
138.177
135.993
133.912
131.956
130.169
128.654
127.807
3.54694
1.65697
1.36678
1.34054
1.40507
1.52009
1.67196
1.85415
2.0624
2.29337
2.5444
2.81352
3.09941
3.40133
3.71901
4.05251
4.40212
4.76833
5.15175
5.55308
5.97311
6.41269
6.87271
7.3541
7.85784
8.38494
8.93642
9.51334
10.1168
10.7479
11.4077
12.0975
12.8183
13.5714
14.3579
15.1791
16.0361
16.9302
17.8625
18.8343
19.8467
20.9009
21.9982
23.1398
24.3269
25.561
26.8433
28.1752
29.558
30.9931
32.4818
34.0254
35.6253
37.2826
38.9987
40.7748
42.612
44.5115
46.4742
48.5013
50.5935
52.7518
54.9768
57.2692
59.6295
62.058
64.555
67.1206
69.7547
72.4571
75.2274
78.065
80.9692
83.9389
86.9732
90.0706
93.2297
96.4488
99.7262
103.06
106.448
109.887
113.376
116.912
120.493
124.115
127.777
131.474
135.204
138.964
142.75
146.559
150.388
154.231
158.086
161.948
165.812
169.674
173.53
177.373
181.198
184.987
188.729
192.416
196.039
199.592
203.069
206.464
209.77
212.982
216.092
219.095
221.986
224.756
227.402
229.916
232.293
234.526
236.611
238.541
240.312
241.919
243.356
244.619
245.705
246.61
247.331
247.864
248.207
248.358
248.316
248.081
247.652
247.031
246.217
245.214
244.023
242.649
241.096
239.367
237.468
235.406
233.189
230.821
228.311
225.668
222.903
220.017
217.03
213.946
210.764
207.523
204.219
200.868
197.482
194.071
190.65
187.228
183.825
180.461
177.158
173.928
170.764
167.656
164.605
161.611
158.678
155.809
153.008
150.279
147.626
145.053
142.565
140.169
137.874
135.696
133.658
131.806
130.213
129.09
4.90835
2.11259
1.66285
1.58664
1.62988
1.73348
1.87757
2.05322
2.25531
2.48032
2.72562
2.98933
3.27015
3.56734
3.88061
4.20998
4.55576
4.91844
5.29864
5.69708
6.11457
6.55196
7.01017
7.49015
7.99287
8.51933
9.07058
9.64766
10.2517
10.8837
11.5448
12.2363
12.9591
13.7146
14.504
15.3283
16.189
17.0871
18.0241
19.0011
20.0195
21.0806
22.1858
23.3364
24.534
25.7801
27.076
28.4234
29.8238
31.2787
32.7898
34.3586
35.9867
37.6756
39.4269
41.242
43.1226
45.0699
47.0855
49.1706
51.3266
53.5545
55.8555
58.2306
60.6806
63.2062
65.8081
68.4865
71.2419
74.0742
76.9832
79.9688
83.0302
86.1669
89.3778
92.6617
96.0172
99.4428
102.937
106.497
110.121
113.807
117.553
121.355
125.212
129.12
133.076
137.077
141.12
145.202
149.318
153.465
157.638
161.832
166.043
170.265
174.492
178.717
182.936
187.141
191.315
195.444
199.518
203.527
207.463
211.32
215.091
218.767
222.343
225.811
229.165
232.399
235.504
238.476
241.307
243.991
246.521
248.892
251.098
253.133
254.991
256.668
258.158
259.459
260.565
261.474
262.183
262.688
262.988
263.082
262.967
262.645
262.116
261.382
260.443
259.303
257.964
256.432
254.71
252.805
250.721
248.466
246.049
243.476
240.753
237.895
234.911
231.797
228.585
225.283
221.894
218.441
214.929
211.373
207.785
204.174
200.554
196.935
193.333
189.762
186.239
182.774
179.368
176.019
172.728
169.497
166.332
163.235
160.211
157.265
154.399
151.621
148.934
146.348
143.873
141.526
139.331
137.325
135.554
134.135
6.32587
2.55915
1.93603
1.80362
1.82164
1.91099
2.04507
2.21235
2.40666
2.62417
2.86223
3.11901
3.39325
3.68424
3.99166
4.31553
4.65614
5.01396
5.38961
5.78383
6.19742
6.63125
7.08625
7.56337
8.06361
8.588
9.13757
9.71342
10.3166
10.9483
11.6097
12.3018
13.026
13.7834
14.5753
15.4031
16.2679
17.1712
18.1144
19.0989
20.1261
21.1975
22.3148
23.4795
24.6933
25.9578
27.2749
28.6463
30.0739
31.5594
33.1049
34.7121
36.3831
38.1197
39.9238
41.7974
43.7423
45.7605
47.8537
50.0237
52.2722
54.6009
57.0113
59.5048
62.0827
64.7461
67.496
70.3334
73.2587
76.2724
79.3746
82.5655
85.8446
89.2114
92.6652
96.2049
99.8291
103.536
107.325
111.193
115.137
119.157
123.248
127.408
131.634
135.923
140.272
144.678
149.135
153.642
158.193
162.783
167.407
172.061
176.736
181.427
186.126
190.826
195.517
200.189
204.818
209.391
213.898
218.33
222.677
226.931
231.084
235.128
239.056
242.86
246.532
250.064
253.451
256.683
259.755
262.659
265.39
267.939
270.301
272.471
274.442
276.21
277.77
279.118
280.251
281.166
281.859
282.329
282.574
282.593
282.386
281.953
281.296
280.418
279.32
278.005
276.477
274.742
272.807
270.676
268.356
265.853
263.182
260.349
257.349
254.217
250.958
247.575
244.089
240.512
236.851
233.124
229.34
225.513
221.653
217.773
213.884
209.997
206.125
202.281
198.478
194.726
191.029
187.388
183.808
180.292
176.845
173.471
170.174
166.96
163.834
160.801
157.867
155.042
152.338
149.771
147.362
145.141
143.132
141.403
7.72181
2.97941
2.17993
1.98883
1.97942
2.05261
2.17512
2.33271
2.51808
2.72697
2.95662
3.2052
3.47151
3.75483
4.05488
4.37164
4.70541
5.05663
5.42592
5.81402
6.22173
6.64995
7.0996
7.57166
8.06716
8.58714
9.13268
9.70489
10.3049
10.9339
11.5931
12.2838
13.0071
13.7645
14.5573
15.3868
16.2546
17.1621
18.1109
19.1025
20.1387
21.2212
22.3517
23.5321
24.7644
26.0505
27.3925
28.7925
30.2526
31.7752
33.3623
35.0164
36.7398
38.5349
40.404
42.3495
44.3738
46.4793
48.6684
50.9432
53.3061
55.7591
58.3044
60.9439
63.6795
66.5126
69.445
72.4777
75.612
78.8485
82.188
85.6306
89.1764
92.8251
96.5761
100.428
104.381
108.432
112.58
116.822
121.156
125.58
130.09
134.684
139.357
144.107
148.93
153.822
158.778
163.794
168.866
173.986
179.15
184.351
189.58
194.83
200.091
205.353
210.605
215.825
220.989
226.085
231.102
236.03
240.857
245.576
250.176
254.648
258.984
263.175
267.213
271.089
274.796
278.325
281.669
284.82
287.772
290.518
293.05
295.364
297.453
299.312
300.939
302.328
303.477
304.383
305.044
305.458
305.624
305.542
305.213
304.638
303.82
302.761
301.466
299.937
298.18
296.201
294.009
291.61
289.007
286.21
283.241
280.105
276.805
273.364
269.792
266.097
262.295
258.4
254.422
250.376
246.274
242.128
237.949
233.751
229.545
225.341
221.152
216.988
212.863
208.785
204.759
200.791
196.886
193.048
189.281
185.593
181.987
178.468
175.043
171.717
168.499
165.397
162.424
159.595
156.929
154.447
152.156
150.104
9.04618
3.3643
2.39256
2.14278
2.10489
2.16069
2.27047
2.41733
2.59282
2.79217
3.01246
3.25181
3.50902
3.7834
4.07467
4.38282
4.70813
5.05105
5.41218
5.79226
6.19211
6.61262
7.05474
7.51949
8.00791
8.52109
9.06015
9.62626
10.2206
10.8445
11.4991
12.1858
12.9061
13.6612
14.4528
15.2823
16.1514
17.0617
18.015
19.0132
20.0581
21.1517
22.296
23.4933
24.7458
26.0559
27.4258
28.8582
30.3556
31.9206
33.5561
35.2647
37.0493
38.9128
40.8581
42.8883
45.0061
47.2146
49.5167
51.9153
54.4133
57.0133
59.718
62.5301
65.4518
68.4854
71.633
74.8963
78.2768
81.776
85.3946
89.1334
92.9927
96.9725
101.072
105.291
109.628
114.081
118.649
123.328
128.117
133.012
138.009
143.106
148.298
153.581
158.951
164.403
169.933
175.535
181.203
186.931
192.711
198.536
204.396
210.281
216.179
222.079
227.964
233.794
239.555
245.234
250.818
256.295
261.653
266.883
271.972
276.911
281.691
286.3
290.731
294.974
299.019
302.859
306.486
309.891
313.068
316.008
318.705
321.153
323.347
325.282
326.954
328.361
329.5
330.369
330.966
331.289
331.341
331.12
330.63
329.873
328.851
327.57
326.035
324.25
322.218
319.948
317.457
314.75
311.833
308.716
305.417
301.945
298.309
294.525
290.606
286.564
282.413
278.166
273.836
269.436
264.98
260.48
255.948
251.397
246.837
242.281
237.74
233.224
228.744
224.31
219.929
215.606
211.348
207.159
203.046
199.015
195.07
191.218
187.465
183.818
180.284
176.874
173.6
170.476
167.516
164.737
162.133
159.744
10.2643
3.70858
2.57395
2.26742
2.20102
2.23876
2.33496
2.47027
2.63509
2.82415
3.03428
3.26353
3.51069
3.77507
4.05639
4.35467
4.67015
5.0033
5.35471
5.72514
6.11539
6.5264
6.95913
7.41463
7.89399
8.39834
8.92887
9.48681
10.0735
10.6901
11.3382
12.0192
12.7346
13.4859
14.2748
15.1032
15.9726
16.8852
17.8428
18.8476
19.9018
21.0076
22.1675
23.384
24.6596
25.9973
27.3997
28.8699
30.411
32.026
33.7183
35.4912
37.3481
39.2925
41.328
43.4582
45.6866
48.0169
50.4527
52.9976
55.655
58.4283
61.3209
64.336
67.4766
70.7455
74.1454
77.6785
81.3469
85.1524
89.0963
93.1796
97.403
101.766
106.27
110.912
115.692
120.608
125.658
130.839
136.148
141.581
147.134
152.803
158.583
164.47
170.457
176.54
182.714
188.971
195.306
201.71
208.176
214.692
221.25
227.835
234.435
241.034
247.595
254.083
260.485
266.786
272.974
279.034
284.953
290.719
296.319
301.743
306.979
312.017
316.846
321.456
325.838
329.982
333.881
337.526
340.909
344.023
346.859
349.412
351.678
353.653
355.334
356.719
357.806
358.594
359.08
359.267
359.155
358.747
358.047
357.055
355.778
354.225
352.401
350.314
347.968
345.375
342.548
339.496
336.227
332.755
329.093
325.253
321.248
317.091
312.795
308.376
303.845
299.218
294.507
289.727
284.89
280.009
275.097
270.167
265.229
260.295
255.377
250.485
245.628
240.818
236.06
231.362
226.731
222.172
217.692
213.296
208.992
204.785
200.682
196.689
192.817
189.074
185.472
182.025
178.743
175.638
172.698
169.958
11.3527
4.00944
2.7252
2.36537
2.27126
2.29078
2.37292
2.49608
2.64963
2.82778
3.02714
3.24563
3.48203
3.73563
4.00614
4.29359
4.59824
4.92054
5.2611
5.62067
6.00009
6.40031
6.82234
7.26726
7.73622
8.23043
8.75114
9.29969
9.87746
10.4859
11.1266
11.8011
12.511
13.2583
14.0446
14.8721
15.7428
16.6588
17.6224
18.6362
19.7026
20.8243
22.0041
23.2449
24.55
25.9224
27.3656
28.8831
30.4784
32.1555
33.9182
35.7704
37.7163
39.76
41.9059
44.1583
46.5214
48.9998
51.5977
54.3194
57.1691
60.1509
63.2689
66.5269
69.9285
73.4772
77.1761
81.0282
85.036
89.2015
93.5265
98.0123
102.66
107.469
112.439
117.57
122.86
128.307
133.909
139.661
145.561
151.604
157.785
164.097
170.536
177.096
183.771
190.553
197.437
204.415
211.48
218.621
225.831
233.097
240.406
247.744
255.092
262.427
269.686
276.854
283.916
290.857
297.661
304.313
310.797
317.099
323.206
329.106
334.787
340.236
345.443
350.396
355.086
359.502
363.638
367.484
371.034
374.276
377.203
379.812
382.098
384.059
385.692
386.997
387.972
388.618
388.933
388.921
388.584
387.929
386.959
385.679
384.097
382.221
380.061
377.624
374.921
371.96
368.756
365.32
361.663
357.799
353.74
349.501
345.094
340.534
335.836
331.012
326.078
321.047
315.934
310.751
305.513
300.233
294.923
289.595
284.262
278.934
273.623
268.339
263.091
257.89
252.743
247.657
242.64
237.698
232.837
228.064
223.386
218.809
214.34
209.986
205.757
201.662
197.714
193.922
190.297
186.845
183.55
180.45
12.2979
4.26584
2.84796
2.43945
2.31914
2.32082
2.38878
2.49949
2.64141
2.80829
2.99649
3.20386
3.42908
3.67147
3.93072
4.20686
4.50015
4.81106
5.14022
5.48839
5.85645
6.24537
6.65623
7.09017
7.54841
8.03226
8.54309
9.08234
9.65155
10.2523
10.8864
11.5555
12.2617
13.0069
13.7932
14.6229
15.4985
16.4224
17.3974
18.4263
19.512
20.6577
21.8668
23.1427
24.489
25.9097
27.4087
28.9901
30.6583
32.4178
34.2732
36.2293
38.2909
40.4631
42.751
45.1596
47.6942
50.36
53.1621
56.1056
59.1954
62.4363
65.8329
69.3896
73.1108
77.0004
81.062
85.2991
89.7143
94.3102
99.0886
104.051
109.197
114.529
120.044
125.743
131.622
137.679
143.912
150.316
156.886
163.617
170.502
177.534
184.705
192.009
199.438
206.985
214.64
222.397
230.244
238.173
246.172
254.228
262.326
270.448
278.572
286.623
294.578
302.418
310.128
317.692
325.095
332.315
339.334
346.139
352.716
359.051
365.131
370.943
376.475
381.716
386.655
391.282
395.589
399.569
403.217
406.517
409.462
412.052
414.283
416.153
417.662
418.809
419.596
420.024
420.095
419.814
419.186
418.217
416.914
415.284
413.337
411.083
408.531
405.694
402.582
399.207
395.582
391.72
387.636
383.343
378.854
374.184
369.348
364.359
359.233
353.984
348.627
343.175
337.643
332.044
326.392
320.7
314.981
309.247
303.509
297.779
292.067
286.384
280.739
275.142
269.6
264.122
258.713
253.382
248.135
242.978
237.918
232.963
228.119
223.395
218.798
214.34
210.031
205.881
201.897
198.084
194.422
190.953
13.0955
4.47826
2.94424
2.49249
2.34813
2.33283
2.38693
2.48528
2.61558
2.77117
2.94823
3.14448
3.3586
3.58986
3.83796
4.10293
4.38506
4.68482
5.00288
5.34005
5.69724
6.07552
6.47602
6.89998
7.34876
7.82377
8.32655
8.85871
9.42199
10.0182
10.6494
11.3175
12.0248
12.7737
13.5666
14.4063
15.2955
16.2373
17.2349
18.2916
19.4109
20.5967
21.8529
23.1836
24.5932
26.0863
27.6676
29.3422
31.1151
32.9917
34.9775
37.0782
39.2995
41.6473
44.1277
46.7467
49.5104
52.4248
55.4961
58.73
62.1321
65.7076
69.4614
73.3986
77.5239
81.8416
86.3556
91.0694
95.986
101.107
106.436
111.972
117.716
123.668
129.826
136.188
142.753
149.515
156.472
163.617
170.946
178.452
186.124
193.952
201.928
210.043
218.288
226.654
235.131
243.709
252.376
261.122
269.932
278.792
287.686
296.591
305.428
314.158
322.762
331.224
339.526
347.654
355.596
363.316
370.797
378.028
384.994
391.68
398.072
404.158
409.923
415.358
420.45
425.19
429.569
433.581
437.217
440.471
443.335
445.808
447.887
449.572
450.863
451.762
452.272
452.395
452.138
451.506
450.506
449.146
447.436
445.387
443.008
440.31
437.308
434.013
430.439
426.599
422.508
418.18
413.63
408.872
403.922
398.794
393.503
388.064
382.493
376.803
371.009
365.125
359.165
353.143
347.073
340.966
334.836
328.694
322.551
316.419
310.308
304.228
298.189
292.198
286.265
280.396
274.599
268.882
263.25
257.71
252.27
246.936
241.716
236.618
231.651
226.824
222.148
217.632
213.281
209.099
205.065
201.225
13.752
4.64856
3.01626
2.52727
2.36154
2.33068
2.37179
2.4584
2.5776
2.72245
2.88896
3.07478
3.27855
3.49954
3.73746
3.99237
4.26458
4.55463
4.86322
5.19126
5.53974
5.90984
6.30282
6.7201
7.16317
7.63369
8.13339
8.66415
9.228
9.82708
10.4637
11.1404
11.8597
12.6245
13.4378
14.3028
15.2231
16.2022
17.244
18.3527
19.5326
20.7881
22.1241
23.5455
25.0577
26.6662
28.3767
30.1952
32.1278
34.1809
36.3611
38.6749
41.1291
43.7307
46.4865
49.4036
52.4888
55.7492
59.1916
62.823
66.6494
70.6749
74.9046
79.3439
83.9975
88.8698
93.9646
99.2848
104.833
110.611
116.619
122.858
129.326
136.024
142.947
150.092
157.456
165.033
172.818
180.803
188.982
197.353
205.894
214.59
223.433
232.413
241.519
250.74
260.062
269.475
278.965
288.52
298.122
307.757
317.404
326.972
336.419
345.727
354.877
363.851
372.631
381.199
389.538
397.623
405.437
412.963
420.185
427.087
433.657
439.879
445.741
451.231
456.339
461.056
465.372
469.281
472.778
475.856
478.511
480.741
482.546
483.925
484.882
485.419
485.542
485.257
484.571
483.491
482.026
480.189
477.99
475.441
472.556
469.348
465.831
462.02
457.93
453.577
448.975
444.141
439.09
433.837
428.399
422.791
417.028
411.124
405.096
398.957
392.721
386.403
380.017
373.575
367.09
360.575
354.041
347.5
340.964
334.441
327.942
321.477
315.055
308.684
302.371
296.125
289.951
283.858
277.852
271.94
266.128
260.423
254.834
249.367
244.033
238.841
233.799
228.916
224.198
219.647
215.241
211.031
14.2842
4.78002
3.0665
2.54663
2.36281
2.31847
2.34817
2.42443
2.53391
2.66943
2.82694
3.00404
3.19937
3.41222
3.64236
3.88988
4.1552
4.43892
4.74191
5.06515
5.40986
5.77736
6.16918
6.58697
7.03254
7.50784
8.01498
8.55623
9.13405
9.75109
10.4102
11.1145
11.8672
12.6719
13.5324
14.4527
15.4372
16.4905
17.6176
18.8236
20.1141
21.4945
22.9705
24.5483
26.2346
28.0361
29.9597
32.0126
34.2023
36.5361
39.0217
41.6667
44.4791
47.4664
50.6365
53.997
57.5553
61.319
65.2955
69.4928
73.9206
78.5743
83.4597
88.5825
93.9473
99.5574
105.415
111.523
117.882
124.49
131.349
138.456
145.809
153.404
161.236
169.3
177.59
186.098
194.815
203.732
212.841
222.129
231.582
241.183
250.921
260.78
270.747
280.807
290.946
301.15
311.402
321.692
331.996
342.294
352.476
362.519
372.405
382.114
391.629
400.93
409.998
418.815
427.363
435.62
443.569
451.191
458.471
465.393
471.943
478.106
483.871
489.227
494.164
498.672
502.744
506.375
509.56
512.295
514.578
516.407
517.784
518.711
519.193
519.234
518.842
518.026
516.795
515.158
513.128
510.716
507.938
504.809
501.341
497.553
493.458
489.074
484.418
479.506
474.355
468.981
463.402
457.632
451.689
445.587
439.343
432.971
426.486
419.901
413.231
406.489
399.688
392.84
385.958
379.053
372.135
365.217
358.308
351.417
344.554
337.727
330.946
324.217
317.548
310.946
304.419
297.971
291.611
285.345
279.179
273.121
267.177
261.357
255.669
250.121
244.723
239.482
234.403
229.49
224.718
220.147
14.7533
4.88222
3.09896
2.55397
2.35573
2.30072
2.32148
2.38983
2.49211
2.62108
2.77262
2.94439
3.13508
3.34408
3.57127
3.8169
4.08154
4.36603
4.67142
4.99902
5.35031
5.727
6.13104
6.56455
7.02991
7.52968
8.06654
8.64341
9.26351
9.93037
10.6478
11.4199
12.251
13.1459
14.1096
15.1475
16.2655
17.4697
18.7667
20.1637
21.6688
23.2872
25.026
26.8936
28.8982
31.0481
33.3519
35.8181
38.4552
41.2718
44.2765
47.4776
50.8836
54.5023
58.3416
62.4089
66.7112
71.2551
76.0467
81.0917
86.3947
91.9572
97.7816
103.87
110.225
116.846
123.734
130.888
138.304
145.982
153.916
162.103
170.536
179.209
188.114
197.244
206.587
216.135
225.875
235.796
245.884
256.126
266.504
277.001
287.602
298.288
309.043
319.848
330.685
341.544
352.395
363.244
374.003
384.592
395.014
405.253
415.293
425.116
434.704
444.038
453.1
461.871
470.333
478.468
486.257
493.684
500.733
507.388
513.636
519.464
524.861
529.816
534.32
538.366
541.948
545.062
547.704
549.872
551.566
552.787
553.538
553.823
553.648
553.022
551.954
550.453
548.533
546.205
543.483
540.383
536.92
533.111
528.973
524.523
519.779
514.758
509.48
503.962
498.221
492.274
486.139
479.831
473.368
466.764
460.035
453.195
446.258
439.237
432.146
424.996
417.799
410.568
403.312
396.042
388.768
381.501
374.248
367.018
359.82
352.662
345.551
338.494
331.498
324.57
317.715
310.941
304.252
297.656
291.16
284.769
278.492
272.336
266.31
260.422
254.682
249.096
243.668
238.403
233.278
228.356
15.1709
4.95419
3.11608
2.55481
2.34864
2.28862
2.30593
2.37198
2.47306
2.60192
2.7546
2.92889
3.1237
3.33864
3.57389
3.83001
4.10796
4.40901
4.73476
5.08705
5.46789
5.87975
6.32541
6.80798
7.331
7.89849
8.51404
9.18136
9.90542
10.6914
11.5449
12.4719
13.4788
14.5724
15.7601
17.0494
18.4485
19.9661
21.611
23.3926
25.3203
27.4031
29.6505
32.0721
34.6778
37.4771
40.4797
43.6946
47.1307
50.7965
54.7001
58.8489
63.2498
67.9092
72.8326
78.0248
83.4896
89.2302
95.2487
101.546
108.123
114.978
122.109
129.514
137.189
145.131
153.336
161.797
170.508
179.462
188.651
198.067
207.701
217.542
227.58
237.804
248.201
258.757
269.46
280.294
291.244
302.293
313.422
324.613
335.848
347.103
358.364
369.606
380.802
391.969
403.019
413.855
424.495
434.931
445.156
455.156
464.918
474.424
483.658
492.603
501.241
509.556
517.529
525.145
532.387
539.239
545.685
551.713
557.31
562.463
567.163
571.4
575.168
578.459
581.271
583.599
585.443
586.803
587.679
588.076
587.997
587.45
586.443
584.985
583.089
580.767
578.032
574.899
571.385
567.505
563.279
558.723
553.858
548.7
543.27
537.586
531.668
525.533
519.199
512.685
506.006
499.179
492.221
485.145
477.965
470.697
463.351
455.941
448.477
440.971
433.434
425.874
418.302
410.727
403.156
395.598
388.061
380.553
373.079
365.648
358.264
350.936
343.668
336.466
329.337
322.285
315.317
308.438
301.656
294.975
288.405
281.952
275.624
269.431
263.38
257.478
251.73
246.139
240.687
235.441
15.62
5.01162
3.12689
2.55816
2.3521
2.295
2.31711
2.38973
2.49928
2.63876
2.80453
2.99477
3.20886
3.44694
3.70981
3.99875
4.31543
4.66206
5.04157
5.45704
5.91097
6.40756
6.95137
7.54739
8.20111
8.91853
9.70598
10.5703
11.519
12.5603
13.7029
14.9563
16.3303
17.8354
19.4824
21.2826
23.2475
25.389
27.7188
30.2488
32.9904
35.9545
39.1518
42.5922
46.2851
50.2391
54.4617
58.9595
63.7382
68.8021
74.1546
79.7984
85.7346
91.9635
98.4843
105.295
112.392
119.772
127.43
135.359
143.554
152.006
160.708
169.652
178.829
188.231
197.847
207.667
217.682
227.88
238.251
248.784
259.468
270.29
281.238
292.299
303.46
314.706
326.022
337.393
348.803