/*--------------------------------*- C++ -*----------------------------------*\
| =========                 |                                                 |
| \\      /  F ield         | OpenFOAM: The Open Source CFD Toolbox           |
|  \\    /   O peration     | Version:  plus                                  |
|   \\  /    A nd           | Website:  www.openfoam.com                      |
|    \\/     M anipulation  |                                                 |
\*---------------------------------------------------------------------------*/
FoamFile
{
    version     2.0;
    format      ascii;
    class       volScalarField;
    location    "200";
    object      k;
}
// * * * * * * * * * * * * * * * * * * * * * * * * * * * * * * * * * * * * * //

dimensions      [0 2 -2 0 0 0 0];


internalField   nonuniform List<scalar> 
12225
(
0.753318
1.08439
1.3156
1.46372
1.55237
1.60099
1.62353
1.62954
1.62534
1.61504
1.60128
1.58573
1.56945
1.5531
1.53709
1.52162
1.50668
1.49378
0.466899
0.491352
0.499065
0.501641
0.501199
0.498811
0.495448
0.49184
0.488457
0.485578
0.483347
0.481819
0.480996
0.480848
0.481337
0.482489
0.484899
0.488069
0.399905
0.409186
0.407549
0.401186
0.392661
0.383171
0.373408
0.363809
0.354645
0.34608
0.338204
0.331057
0.324642
0.318942
0.313927
0.309569
0.305844
0.30254
0.37962
0.381736
0.380984
0.378139
0.373867
0.368677
0.362942
0.356927
0.350824
0.34477
0.33886
0.33316
0.327714
0.322548
0.317677
0.313106
0.308823
0.304832
0.374797
0.374411
0.373203
0.371185
0.368508
0.365334
0.361809
0.358054
0.354165
0.350218
0.346273
0.342375
0.338556
0.334842
0.331251
0.327794
0.324479
0.321331
0.373412
0.371973
0.370403
0.368569
0.366463
0.364124
0.361601
0.358947
0.356206
0.353418
0.350615
0.347824
0.345064
0.342354
0.339706
0.33713
0.334634
0.332245
0.372994
0.371097
0.369277
0.367434
0.365527
0.363546
0.361496
0.359394
0.357256
0.3551
0.352941
0.350795
0.348672
0.346582
0.344535
0.342535
0.340591
0.338724
0.372867
0.370782
0.368819
0.366928
0.365075
0.363238
0.361409
0.359584
0.357765
0.355958
0.354168
0.3524
0.35066
0.348953
0.347283
0.345653
0.344068
0.342547
0.372828
0.370672
0.36864
0.366709
0.364858
0.363071
0.361336
0.359643
0.357989
0.356371
0.354788
0.353242
0.351731
0.350258
0.348824
0.34743
0.346077
0.344782
0.372814
0.370632
0.36857
0.366616
0.364756
0.362981
0.36128
0.359645
0.358068
0.356546
0.355074
0.35365
0.352272
0.350938
0.349647
0.348398
0.347192
0.346041
0.372807
0.370616
0.368542
0.366575
0.364707
0.362932
0.36124
0.359625
0.358081
0.356602
0.355184
0.353822
0.352513
0.351255
0.350045
0.348881
0.347762
0.346698
0.372804
0.370609
0.368529
0.366556
0.364684
0.362906
0.361214
0.359605
0.35807
0.356606
0.355208
0.353872
0.352593
0.351369
0.350196
0.349072
0.347996
0.346977
0.372801
0.370604
0.36852
0.366545
0.364669
0.362888
0.361195
0.359586
0.358054
0.356595
0.355204
0.353878
0.352612
0.351404
0.350249
0.349145
0.348091
0.347095
0.372799
0.370599
0.368514
0.366536
0.364657
0.362874
0.361179
0.359568
0.358035
0.356576
0.355187
0.353864
0.352602
0.351399
0.350252
0.349156
0.348111
0.347126
0.372797
0.370596
0.368509
0.366528
0.364648
0.362862
0.361165
0.359552
0.358017
0.356557
0.355167
0.353842
0.352581
0.351378
0.350231
0.349137
0.348094
0.347112
0.372796
0.370593
0.368505
0.366522
0.36464
0.362853
0.361154
0.359539
0.358002
0.35654
0.355147
0.353821
0.352558
0.351354
0.350205
0.34911
0.348066
0.347083
0.372794
0.370592
0.368502
0.366518
0.364635
0.362845
0.361145
0.359528
0.35799
0.356526
0.355132
0.353804
0.352538
0.351332
0.350182
0.349085
0.34804
0.347055
0.372794
0.37059
0.3685
0.366515
0.364631
0.362841
0.361139
0.359521
0.357981
0.356515
0.35512
0.353791
0.352524
0.351316
0.350165
0.349066
0.348019
0.347033
0.372794
0.37059
0.368499
0.366515
0.36463
0.362839
0.361137
0.359518
0.357977
0.356511
0.355115
0.353784
0.352517
0.351308
0.350155
0.349056
0.348008
0.347021
0.372794
0.370591
0.368501
0.366516
0.364632
0.362841
0.361139
0.359521
0.35798
0.356514
0.355118
0.353788
0.35252
0.351311
0.350159
0.349059
0.348011
0.347024
0.372795
0.370593
0.368503
0.36652
0.364637
0.362847
0.361146
0.359529
0.357989
0.356524
0.355129
0.353799
0.352532
0.351324
0.350171
0.349071
0.348023
0.347035
0.372797
0.370596
0.368508
0.366527
0.364647
0.362861
0.361163
0.359549
0.358012
0.35655
0.355156
0.353827
0.352559
0.351349
0.350193
0.349089
0.348035
0.34704
0.3728
0.370603
0.368523
0.366553
0.364684
0.362909
0.361223
0.359617
0.358087
0.356625
0.355228
0.35389
0.352608
0.351379
0.3502
0.349067
0.347981
0.34695
0.372811
0.37064
0.368599
0.366673
0.364848
0.363111
0.361449
0.359853
0.358314
0.356827
0.355387
0.353992
0.352639
0.351326
0.350053
0.348818
0.347622
0.346478
0.372878
0.370848
0.368976
0.367207
0.365498
0.363822
0.362162
0.360511
0.358868
0.357234
0.355612
0.354006
0.352421
0.350861
0.349328
0.347827
0.346361
0.344946
0.373296
0.371888
0.370555
0.36914
0.36758
0.365863
0.364006
0.362034
0.359977
0.357864
0.355718
0.353559
0.351405
0.349269
0.347162
0.345092
0.343066
0.341107
0.375592
0.376405
0.376344
0.375318
0.373493
0.371082
0.368264
0.365176
0.361918
0.358562
0.355165
0.351768
0.348402
0.34509
0.341851
0.338697
0.335639
0.332698
0.388378
0.395985
0.396864
0.394347
0.390174
0.385134
0.379637
0.373923
0.36814
0.362388
0.356741
0.351248
0.345948
0.340866
0.336019
0.331413
0.327051
0.322939
0.431726
0.445048
0.447897
0.44777
0.446645
0.444949
0.442873
0.440556
0.438102
0.435594
0.433101
0.430679
0.42837
0.426203
0.424197
0.422357
0.420664
0.419065
0.569272
0.752523
0.899799
1.0142
1.11171
1.19252
1.25776
1.3091
1.34843
1.37767
1.39857
1.41271
1.42142
1.42584
1.42689
1.42535
1.42184
1.41681
0.00381966
0.00541994
0.00670201
0.00770824
0.00875171
0.00977551
0.010925
0.0125321
0.0144537
0.0166541
0.0190694
0.0216545
0.024381
0.02723
0.0301876
0.0332433
0.0363889
0.0396182
0.0429266
0.0463107
0.0497683
0.0532982
0.0569
0.0605739
0.0643208
0.068142
0.0720393
0.076015
0.0800717
0.0842124
0.0884407
0.0927604
0.0971764
0.101694
0.10632
0.111061
0.115928
0.120932
0.126088
0.131416
0.13694
0.142693
0.148716
0.154945
0.161338
0.167897
0.174623
0.181521
0.188591
0.195838
0.203262
0.210864
0.218647
0.226612
0.234758
0.243087
0.251598
0.260291
0.269166
0.278221
0.287456
0.296868
0.306455
0.316216
0.326147
0.336245
0.346506
0.356927
0.367502
0.378228
0.389099
0.400109
0.411253
0.422523
0.433913
0.445416
0.457024
0.468728
0.48052
0.492391
0.504332
0.51633
0.528377
0.540461
0.552569
0.564689
0.576808
0.588911
0.600986
0.613016
0.624987
0.636883
0.648688
0.660389
0.671969
0.683417
0.694722
0.705878
0.716884
0.727751
0.738504
0.749193
0.759799
0.770134
0.78019
0.789956
0.799421
0.808573
0.817399
0.825888
0.834026
0.8418
0.849199
0.856209
0.862818
0.869014
0.874783
0.880114
0.884995
0.889415
0.893363
0.89683
0.899805
0.902279
0.904245
0.905696
0.906623
0.907022
0.906888
0.906219
0.905012
0.903268
0.900987
0.89817
0.894822
0.890948
0.886556
0.881653
0.876249
0.870356
0.863989
0.857163
0.849891
0.842193
0.834092
0.825607
0.816755
0.807567
0.798065
0.788267
0.778209
0.767915
0.757407
0.746726
0.735883
0.724925
0.713874
0.702706
0.691699
0.681119
0.672543
0.665821
0.659261
0.652722
0.646206
0.639717
0.633276
0.626902
0.620608
0.614403
0.608296
0.602289
0.596379
0.590543
0.584728
0.578816
0.572566
0.565373
0.556084
0.541075
0.0074989
0.0115174
0.015551
0.0190673
0.0220205
0.0247934
0.0276263
0.0306727
0.0339912
0.0375739
0.0413941
0.0454295
0.0496658
0.054094
0.0587076
0.0635021
0.0684738
0.0736203
0.0789401
0.0844326
0.0900983
0.0959382
0.101954
0.108149
0.114525
0.121086
0.127836
0.134779
0.14192
0.149263
0.156815
0.164581
0.172567
0.180779
0.189225
0.197912
0.206846
0.216037
0.225492
0.23522
0.245227
0.255519
0.266102
0.276976
0.288144
0.299615
0.311394
0.323489
0.335905
0.348647
0.361721
0.37513
0.38888
0.402972
0.417411
0.432199
0.447337
0.462828
0.478672
0.49487
0.51142
0.528323
0.545577
0.563178
0.581125
0.599414
0.618039
0.636997
0.656282
0.675886
0.695803
0.716025
0.736544
0.757349
0.778431
0.799781
0.821385
0.843233
0.865313
0.88761
0.910111
0.932801
0.955666
0.978688
1.00185
1.02514
1.04853
1.072
1.09554
1.11912
1.14272
1.1663
1.18986
1.21336
1.23678
1.26009
1.28327
1.30629
1.32914
1.35178
1.37421
1.39641
1.41814
1.43949
1.46045
1.48103
1.50118
1.5209
1.54015
1.55892
1.57718
1.5949
1.61206
1.62864
1.64461
1.65995
1.67462
1.6886
1.70187
1.71439
1.72615
1.73712
1.74727
1.75658
1.76502
1.77258
1.77923
1.78496
1.78974
1.79355
1.79639
1.79823
1.79908
1.79892
1.79775
1.79556
1.79236
1.78815
1.78293
1.77672
1.76953
1.76138
1.75229
1.74228
1.73139
1.71963
1.70705
1.69368
1.67957
1.66474
1.64925
1.63315
1.61647
1.59928
1.5816
1.56351
1.54509
1.52616
1.50723
1.48833
1.46959
1.45123
1.43293
1.4147
1.39658
1.37861
1.36084
1.3433
1.32601
1.30901
1.29232
1.27594
1.25989
1.24416
1.22873
1.21351
1.19836
1.18299
1.16658
1.14498
0.010815
0.0191957
0.025313
0.0299025
0.0339207
0.0377854
0.0417343
0.0459034
0.0503519
0.0550876
0.0600973
0.0653649
0.0708776
0.0766271
0.0826076
0.0888156
0.0952486
0.101905
0.108786
0.11589
0.123219
0.130777
0.138564
0.146586
0.154845
0.163348
0.172098
0.181101
0.190363
0.19989
0.209689
0.219768
0.230133
0.240791
0.251752
0.263022
0.27461
0.286525
0.298774
0.311365
0.324305
0.337601
0.35126
0.365288
0.379693
0.394484
0.409668
0.425254
0.441248
0.457657
0.474487
0.491744
0.509433
0.527559
0.546124
0.565133
0.584588
0.604491
0.624843
0.645645
0.666895
0.688593
0.710737
0.733323
0.756348
0.779807
0.803693
0.828
0.85272
0.877845
0.903364
0.929266
0.95554
0.982173
1.00915
1.03646
1.06408
1.09201
1.12021
1.14868
1.1774
1.20634
1.23549
1.26482
1.29432
1.32396
1.35372
1.38356
1.41348
1.44344
1.47341
1.50336
1.53326
1.56309
1.59281
1.62238
1.65179
1.68098
1.70995
1.73864
1.76706
1.79503
1.82251
1.84952
1.87603
1.90203
1.92749
1.95238
1.97667
2.00033
2.02333
2.04565
2.06726
2.08811
2.10818
2.12745
2.14587
2.16342
2.18005
2.19575
2.21048
2.22421
2.23691
2.24855
2.2591
2.26853
2.27683
2.28395
2.28989
2.29462
2.29813
2.30039
2.3014
2.30114
2.29961
2.29681
2.29274
2.28739
2.28079
2.27294
2.26387
2.25358
2.24212
2.22949
2.21575
2.20094
2.18508
2.16823
2.15044
2.13175
2.11222
2.09191
2.07087
2.04918
2.02687
2.004
1.98082
1.95721
1.93344
1.9096
1.88581
1.86219
1.83865
1.81519
1.79185
1.76869
1.74575
1.72309
1.70074
1.67874
1.65713
1.63592
1.61514
1.59481
1.57492
1.55546
1.53638
1.51759
1.49873
1.47885
0.013615
0.0264841
0.0341988
0.0399498
0.0449405
0.0496888
0.0544767
0.0594621
0.0647227
0.0702854
0.0761501
0.0823068
0.0887442
0.0954531
0.102427
0.109662
0.117156
0.124907
0.132917
0.141186
0.149717
0.158513
0.167578
0.176915
0.186531
0.196431
0.20662
0.217106
0.227895
0.238995
0.250413
0.262156
0.274235
0.286655
0.299428
0.31256
0.326062
0.339942
0.354208
0.368871
0.383937
0.399416
0.415315
0.431644
0.448412
0.465628
0.483301
0.50144
0.520053
0.539149
0.558734
0.578816
0.599401
0.620493
0.642099
0.664223
0.686868
0.710036
0.733731
0.757951
0.782699
0.807972
0.833769
0.860086
0.886919
0.914263
0.942111
0.970455
0.999286
1.02859
1.05837
1.08859
1.11925
1.15033
1.18182
1.2137
1.24594
1.27853
1.31145
1.34468
1.37819
1.41196
1.44596
1.48018
1.51458
1.54914
1.58383
1.61862
1.65349
1.6884
1.72333
1.75823
1.79307
1.82782
1.86245
1.8969
1.93114
1.96514
1.99886
2.03225
2.06528
2.09776
2.12969
2.16105
2.19182
2.22196
2.25146
2.28027
2.30836
2.3357
2.36226
2.388
2.41289
2.43689
2.45997
2.4821
2.50323
2.52334
2.54238
2.56033
2.57714
2.59279
2.60724
2.62046
2.63243
2.6431
2.65245
2.66047
2.66711
2.67236
2.6762
2.67861
2.67959
2.67911
2.67718
2.67378
2.66893
2.66263
2.65489
2.64572
2.63514
2.62318
2.60986
2.59522
2.5793
2.56214
2.54379
2.5243
2.50372
2.48212
2.45953
2.43608
2.41172
2.38666
2.36098
2.33473
2.30806
2.28099
2.25367
2.22621
2.19872
2.1713
2.14393
2.11664
2.08946
2.06246
2.0357
2.00924
1.98312
1.95738
1.93208
1.90725
1.88292
1.85914
1.83594
1.81335
1.79141
1.77017
1.74951
1.72948
0.0174238
0.0329127
0.0421776
0.0490322
0.0549133
0.060428
0.0659038
0.0715277
0.0774021
0.0835749
0.0900622
0.0968631
0.103971
0.111378
0.119077
0.127065
0.135339
0.143898
0.152744
0.161877
0.171302
0.181022
0.191041
0.201366
0.212001
0.222954
0.234232
0.245841
0.257789
0.270085
0.282736
0.295753
0.309143
0.322916
0.337081
0.351649
0.366628
0.382028
0.397861
0.414134
0.430859
0.448045
0.465702
0.483841
0.502472
0.521605
0.541252
0.561421
0.582123
0.603368
0.625165
0.647521
0.670445
0.693943
0.718023
0.742691
0.767951
0.793807
0.820262
0.847319
0.874979
0.903242
0.932106
0.961569
0.991626
1.02227
1.0535
1.08531
1.11767
1.15059
1.18406
1.21804
1.25254
1.28752
1.32298
1.35889
1.39522
1.43196
1.46909
1.50657
1.54437
1.58248
1.62087
1.65949
1.69833
1.73736
1.77654
1.81584
1.85522
1.89466
1.93412
1.97356
2.01294
2.05221
2.09134
2.13028
2.16898
2.2074
2.24548
2.28318
2.32042
2.35703
2.393
2.42832
2.46293
2.49682
2.52995
2.56228
2.59377
2.62439
2.6541
2.68286
2.71065
2.73741
2.76312
2.78773
2.81121
2.83352
2.85462
2.87448
2.89306
2.91033
2.92625
2.94079
2.95392
2.96561
2.97583
2.98455
2.99175
2.9974
3.00149
3.004
3.00492
3.00423
3.00194
2.99803
2.99251
2.98539
2.97668
2.96639
2.95455
2.94119
2.92633
2.91
2.89226
2.87315
2.85272
2.83101
2.80811
2.78407
2.75888
2.73281
2.70583
2.67808
2.64963
2.62057
2.59102
2.56103
2.53073
2.50022
2.46962
2.43899
2.40838
2.37781
2.34735
2.31705
2.28699
2.25722
2.22781
2.19881
2.17026
2.14223
2.11477
2.08794
2.0618
2.03644
2.01195
1.98843
1.96586
1.94443
0.0216511
0.0386043
0.0491637
0.0569878
0.0636622
0.0698535
0.0759206
0.0820739
0.088437
0.0950778
0.102028
0.1093
0.116894
0.124805
0.13303
0.141565
0.150408
0.159559
0.169019
0.178792
0.188881
0.199289
0.210024
0.221091
0.232496
0.244248
0.256353
0.268819
0.281656
0.294872
0.308476
0.322477
0.336887
0.351713
0.366968
0.382662
0.398804
0.415407
0.432482
0.450039
0.46809
0.486647
0.505721
0.525324
0.545469
0.566167
0.587431
0.609272
0.631702
0.654733
0.678376
0.70264
0.727536
0.753074
0.779261
0.806106
0.833615
0.861795
0.890651
0.920186
0.950404
0.981305
1.01289
1.04516
1.0781
1.11172
1.14601
1.18096
1.21656
1.2528
1.28965
1.32712
1.36518
1.40381
1.44298
1.48268
1.52288
1.56355
1.60467
1.6462
1.68812
1.73039
1.77297
1.81585
1.85898
1.90232
1.94585
1.98952
2.0333
2.07714
2.12102
2.16488
2.20868
2.25238
2.29592
2.33924
2.3823
2.42504
2.4674
2.50932
2.55062
2.59122
2.6311
2.67022
2.70854
2.74602
2.78262
2.81829
2.85301
2.88673
2.91942
2.95102
2.98151
3.01085
3.03899
3.06589
3.09153
3.11585
3.13883
3.16042
3.18059
3.1993
3.21652
3.23222
3.24637
3.25894
3.26991
3.27923
3.2869
3.29289
3.29717
3.29974
3.30059
3.29971
3.29708
3.29271
3.2866
3.27877
3.26921
3.25796
3.24502
3.23044
3.21424
3.19646
3.17713
3.15633
3.13411
3.11044
3.08553
3.05943
3.03216
3.00389
2.97466
2.94459
2.91375
2.88225
2.85018
2.81763
2.78469
2.75148
2.71809
2.68461
2.65108
2.61756
2.58411
2.55081
2.51772
2.48491
2.45245
2.4204
2.38883
2.3578
2.32738
2.29766
2.26873
2.2407
2.2137
2.18785
2.1631
2.13964
0.0256556
0.0434547
0.0550849
0.0637398
0.0711044
0.0778871
0.0844666
0.0910687
0.0978325
0.104842
0.112143
0.11976
0.127703
0.135972
0.144568
0.153489
0.162736
0.172308
0.182209
0.192441
0.203009
0.213918
0.225176
0.236787
0.248761
0.261105
0.273826
0.286936
0.300441
0.314353
0.328681
0.343435
0.358627
0.374267
0.390366
0.406937
0.423991
0.441541
0.459599
0.478178
0.497291
0.516952
0.537173
0.557969
0.579354
0.601342
0.623947
0.647183
0.671065
0.695605
0.720816
0.746713
0.773308
0.800611
0.828635
0.85739
0.886885
0.917128
0.948128
0.97989
1.01242
1.04572
1.07979
1.11463
1.15025
1.18663
1.22378
1.26167
1.30032
1.33969
1.37978
1.42058
1.46205
1.50418
1.54695
1.59033
1.63429
1.6788
1.72383
1.76934
1.8153
1.86167
1.90842
1.9555
2.00288
2.05052
2.09837
2.1464
2.19456
2.24281
2.2911
2.33938
2.38761
2.43573
2.48367
2.53139
2.5788
2.62586
2.67247
2.71857
2.76391
2.80847
2.8522
2.89507
2.93701
2.978
3.01798
3.05692
3.09476
3.13147
3.16701
3.20133
3.23439
3.26616
3.29659
3.32564
3.35328
3.37947
3.40416
3.42733
3.44893
3.46893
3.48731
3.50404
3.51908
3.53241
3.544
3.55383
3.56187
3.56811
3.57253
3.57513
3.57588
3.57478
3.57184
3.56703
3.56038
3.5519
3.54159
3.52947
3.51557
3.4999
3.48253
3.46348
3.44273
3.42046
3.39669
3.37145
3.34487
3.31702
3.28796
3.2578
3.22662
3.19453
3.1616
3.12793
3.09362
3.05877
3.02345
2.98779
2.95187
2.91578
2.87958
2.84334
2.80712
2.77101
2.73507
2.69939
2.66404
2.62909
2.59461
2.56069
2.52741
2.49487
2.46319
2.43249
2.40292
2.37459
2.34742
2.32155
0.0293167
0.0474801
0.0599679
0.0693113
0.077256
0.08454
0.091554
0.0985323
0.105624
0.112923
0.120489
0.128355
0.13654
0.145053
0.153898
0.163077
0.172592
0.182445
0.192641
0.203183
0.214077
0.22533
0.236947
0.248937
0.261308
0.274069
0.287229
0.300797
0.314785
0.329201
0.344058
0.359367
0.375139
0.391387
0.408123
0.42536
0.443111
0.461391
0.480214
0.499594
0.519546
0.540086
0.56123
0.582992
0.60539
0.62844
0.652159
0.676563
0.701669
0.727493
0.754052
0.78136
0.809434
0.838289
0.867938
0.898394
0.929671
0.961779
0.994729
1.02853
1.06319
1.09871
1.1351
1.17236
1.21049
1.24949
1.28936
1.33008
1.37164
1.41405
1.45727
1.5013
1.54611
1.59168
1.63798
1.68499
1.73266
1.78098
1.8299
1.87938
1.92938
1.97986
2.03077
2.08208
2.13373
2.18569
2.23789
2.2903
2.34287
2.39555
2.44829
2.50103
2.55371
2.60627
2.65865
2.71078
2.76257
2.81395
2.86484
2.91505
2.96441
3.01288
3.06042
3.10697
3.15247
3.19689
3.24017
3.28226
3.32313
3.36271
3.40098
3.43788
3.47338
3.50744
3.54001
3.57105
3.60054
3.62842
3.65466
3.67923
3.70209
3.72322
3.74259
3.76017
3.77595
3.78989
3.80197
3.81217
3.82048
3.82687
3.83134
3.83388
3.83448
3.83313
3.82984
3.82461
3.81744
3.80833
3.79733
3.78443
3.76965
3.75301
3.73461
3.71447
3.6926
3.66912
3.64407
3.6175
3.58952
3.56019
3.52959
3.49782
3.46496
3.4311
3.39633
3.36075
3.32446
3.28753
3.25008
3.21219
3.17396
3.13548
3.09681
3.05805
3.01924
2.98049
2.94187
2.90346
2.86534
2.82759
2.79031
2.75357
2.71748
2.68216
2.64774
2.61435
2.58212
2.55118
2.52137
2.49283
0.032592
0.0507342
0.0638843
0.0737784
0.0821918
0.0898836
0.0972513
0.104533
0.111884
0.119404
0.127161
0.135197
0.143539
0.152202
0.161195
0.170524
0.180195
0.190212
0.20058
0.211305
0.222394
0.233852
0.245689
0.257913
0.270533
0.283559
0.297001
0.310869
0.325174
0.339929
0.355145
0.370834
0.38701
0.403686
0.420876
0.438595
0.456858
0.47568
0.495078
0.515068
0.535668
0.556895
0.578767
0.601304
0.624522
0.648443
0.673085
0.698468
0.724611
0.751535
0.779258
0.807799
0.837178
0.867411
0.898518
0.930514
0.963416
0.997237
1.03199
1.06769
1.10435
1.14197
1.18056
1.22012
1.26066
1.30218
1.34467
1.38813
1.43255
1.47792
1.52422
1.57144
1.61955
1.66852
1.71834
1.76896
1.82035
1.87247
1.92529
1.97875
2.03281
2.08742
2.14254
2.1981
2.25406
2.31037
2.36696
2.42379
2.4808
2.53794
2.59515
2.65236
2.70951
2.76654
2.82336
2.87989
2.93605
2.99174
3.04685
3.10109
3.15439
3.2067
3.25795
3.30808
3.35704
3.40477
3.45122
3.49633
3.54007
3.58237
3.6232
3.66252
3.70027
3.73643
3.77094
3.80378
3.83491
3.86428
3.89186
3.91762
3.94154
3.96358
3.98374
4.00198
4.01829
4.03266
4.04506
4.05546
4.06387
4.07027
4.07466
4.07704
4.0774
4.07573
4.07205
4.06636
4.05864
4.04893
4.03727
4.02366
4.00813
3.99071
3.97146
3.95042
3.92763
3.90315
3.87705
3.8494
3.82025
3.7897
3.75781
3.72468
3.69039
3.65502
3.61867
3.58143
3.54338
3.50463
3.46526
3.42537
3.38505
3.3444
3.30348
3.26238
3.22118
3.17996
3.13881
3.09781
3.05705
3.01663
2.97663
2.93715
2.89832
2.86025
2.82308
2.78697
2.75202
2.71834
2.68574
2.65436
0.035467
0.0532836
0.0669218
0.07724
0.0860153
0.094022
0.101662
0.109174
0.116716
0.124391
0.132273
0.140409
0.148833
0.157566
0.166622
0.176012
0.185743
0.195822
0.206257
0.217054
0.228222
0.239768
0.251702
0.264033
0.276772
0.289928
0.303514
0.31754
0.332019
0.346964
0.362388
0.378305
0.394729
0.411676
0.429162
0.447202
0.465814
0.485015
0.504825
0.525262
0.546345
0.568096
0.590535
0.613683
0.637562
0.662195
0.687605
0.713813
0.740844
0.76872
0.797464
0.827099
0.857648
0.889132
0.921573
0.95499
0.989404
1.02483
1.06129
1.0988
1.13736
1.177
1.21771
1.25951
1.30241
1.34639
1.39147
1.43763
1.48487
1.53318
1.58254
1.63293
1.68433
1.73671
1.79005
1.84429
1.89941
1.95536
2.0121
2.06958
2.12773
2.18651
2.24585
2.3057
2.366
2.42668
2.48768
2.54894
2.6104
2.672
2.73367
2.79533
2.85693
2.91837
2.97958
3.04046
3.10091
3.16083
3.21996
3.27811
3.3352
3.39118
3.44597
3.49951
3.55174
3.60259
3.65201
3.69994
3.74633
3.79113
3.83429
3.87578
3.91555
3.95355
3.98976
4.02413
4.05664
4.08724
4.1159
4.14259
4.1673
4.18999
4.21067
4.22933
4.24594
4.2605
4.27299
4.28339
4.2917
4.29794
4.30209
4.30416
4.30414
4.30205
4.2979
4.2917
4.28345
4.27318
4.26092
4.24669
4.23052
4.21244
4.1925
4.17074
4.1472
4.12193
4.09501
4.06648
4.03641
4.00488
3.97195
3.93772
3.90225
3.86563
3.82796
3.78931
3.74977
3.70945
3.66841
3.62677
3.5846
3.542
3.49905
3.45584
3.41244
3.36894
3.32543
3.28201
3.23877
3.19579
3.1532
3.11108
3.06957
3.02881
2.98892
2.95008
2.91237
2.87588
2.84038
2.80608
0.0379423
0.0551993
0.0691741
0.0798028
0.0888416
0.0970748
0.104907
0.112577
0.120241
0.128008
0.135951
0.144124
0.152564
0.161297
0.170342
0.179713
0.18942
0.199473
0.209882
0.220655
0.231802
0.243331
0.255254
0.267581
0.280323
0.293492
0.3071
0.32116
0.335686
0.350692
0.366193
0.382205
0.398743
0.415825
0.433469
0.451693
0.470517
0.489962
0.510047
0.530795
0.552228
0.574371
0.597246
0.620879
0.645294
0.670519
0.696578
0.7235
0.751309
0.780035
0.809702
0.840339
0.871971
0.904625
0.938325
0.973096
1.00896
1.04594
1.08406
1.12333
1.16377
1.2054
1.24822
1.29225
1.33748
1.38393
1.4316
1.48047
1.53054
1.58181
1.63424
1.68783
1.74255
1.79836
1.85524
1.91314
1.97203
2.03184
2.09253
2.15404
2.21631
2.27928
2.34287
2.40702
2.47166
2.5367
2.60209
2.66775
2.73362
2.79961
2.86566
2.93169
2.99762
3.06336
3.12881
3.19388
3.25845
3.32234
3.38522
3.44701
3.50763
3.56701
3.62509
3.68176
3.73697
3.79065
3.84273
3.89317
3.94191
3.98889
4.03407
4.0774
4.11885
4.15837
4.19594
4.23152
4.26509
4.29659
4.32599
4.35328
4.37845
4.40149
4.42238
4.44114
4.45775
4.47224
4.48455
4.49469
4.50268
4.50853
4.51225
4.51385
4.51334
4.51073
4.50604
4.49929
4.4905
4.47968
4.46687
4.45209
4.43538
4.41675
4.39625
4.37393
4.34981
4.32396
4.29641
4.26723
4.23648
4.20422
4.17051
4.13544
4.09906
4.06148
4.02275
3.98298
3.94223
3.9006
3.85817
3.81504
3.77129
3.72701
3.68228
3.63719
3.59182
3.54627
3.50062
3.45497
3.40941
3.36406
3.31901
3.27438
3.23031
3.18693
3.14439
3.10284
3.06237
3.02305
2.98464
2.94737
0.0400294
0.0565541
0.0707347
0.0815743
0.090788
0.0991657
0.107113
0.11487
0.122593
0.130388
0.138332
0.146482
0.154877
0.163547
0.172515
0.181797
0.191407
0.201358
0.21166
0.222325
0.233362
0.244784
0.256601
0.268826
0.281471
0.294549
0.308075
0.322063
0.336527
0.351485
0.366952
0.382947
0.399488
0.416594
0.434286
0.452585
0.471513
0.491094
0.511351
0.53231
0.553996
0.576437
0.59966
0.623694
0.648567
0.674309
0.700951
0.728524
0.757058
0.786585
0.817136
0.848741
0.881432
0.915238
0.950189
0.986312
1.02364
1.06218
1.10198
1.14305
1.18541
1.22906
1.27404
1.32034
1.36798
1.41695
1.46726
1.51891
1.57188
1.62616
1.68174
1.73859
1.79668
1.85598
1.91646
1.97806
2.04074
2.10444
2.16911
2.23467
2.30107
2.36823
2.43605
2.50447
2.57339
2.64274
2.71243
2.78239
2.85253
2.92277
2.99303
3.06322
3.13326
3.20305
3.27248
3.34144
3.40979
3.47715
3.54339
3.60842
3.67216
3.73454
3.79549
3.85489
3.91266
3.96874
4.02307
4.07559
4.12624
4.17498
4.22175
4.2665
4.30921
4.34982
4.38832
4.42469
4.45891
4.49091
4.52065
4.54814
4.57339
4.59639
4.61714
4.63565
4.65193
4.66599
4.67782
4.68744
4.69487
4.70012
4.70323
4.70419
4.70305
4.69981
4.69451
4.68716
4.6778
4.66643
4.6531
4.63782
4.62064
4.60157
4.58064
4.5579
4.53339
4.50713
4.47918
4.44958
4.41839
4.38566
4.35145
4.31582
4.27883
4.24057
4.20111
4.16051
4.11886
4.07624
4.03272
3.98841
3.94337
3.8977
3.85148
3.80479
3.75773
3.71038
3.66283
3.61518
3.56754
3.52
3.47269
3.42572
3.37923
3.33336
3.28827
3.24409
3.20092
3.1588
3.1175
3.07729
0.0417512
0.0574213
0.0716956
0.0826586
0.0919685
0.100416
0.108409
0.116187
0.123904
0.131667
0.139556
0.147626
0.15592
0.16447
0.173302
0.182434
0.191883
0.201664
0.21179
0.222273
0.233126
0.244361
0.255992
0.268033
0.280498
0.293401
0.306758
0.320586
0.334903
0.349726
0.365074
0.380968
0.397428
0.414478
0.432141
0.45044
0.469402
0.489054
0.509424
0.53054
0.552432
0.575131
0.598669
0.623078
0.648392
0.674645
0.701871
0.730107
0.759387
0.789746
0.821221
0.853847
0.887657
0.922687
0.958969
0.996536
1.03542
1.07564
1.11724
1.16023
1.20463
1.25046
1.29773
1.34645
1.39662
1.44826
1.50136
1.55591
1.6119
1.66932
1.72815
1.78836
1.84992
1.91278
1.97692
2.04227
2.10877
2.17638
2.24502
2.31462
2.3851
2.45639
2.52838
2.60096
2.67403
2.74752
2.82132
2.89535
2.96951
3.04371
3.11786
3.19186
3.26562
3.33902
3.41197
3.48432
3.55571
3.62597
3.69498
3.76267
3.82895
3.89375
3.95702
4.01856
4.07832
4.13623
4.19223
4.24626
4.29827
4.3482
4.39601
4.44164
4.48507
4.52625
4.56516
4.60178
4.6361
4.66808
4.69769
4.72495
4.74985
4.7724
4.79262
4.81052
4.82612
4.83944
4.8505
4.85931
4.86592
4.87035
4.87263
4.87279
4.87086
4.86688
4.86086
4.85285
4.84287
4.83095
4.81711
4.80139
4.78381
4.76439
4.74317
4.72018
4.69544
4.66899
4.64086
4.61109
4.57972
4.5468
4.51238
4.4765
4.43923
4.40063
4.36075
4.31967
4.27747
4.2342
4.18994
4.14479
4.09881
4.05208
4.0047
3.95674
3.90829
3.85944
3.81028
3.76092
3.71145
3.66198
3.61264
3.56355
3.51484
3.46666
3.41916
3.37248
3.32671
3.2819
3.2378
3.19474
0.043144
0.0578749
0.0721458
0.0831555
0.0924918
0.100943
0.108917
0.116653
0.124306
0.131982
0.13976
0.147698
0.15584
0.164219
0.172862
0.181791
0.191024
0.200578
0.210469
0.22071
0.231316
0.242303
0.253684
0.265477
0.277697
0.290362
0.303489
0.317098
0.331208
0.34584
0.361018
0.376763
0.393101
0.410057
0.427659
0.445936
0.464917
0.484634
0.50512
0.526408
0.548532
0.571528
0.595431
0.620279
0.646111
0.672965
0.70088
0.729898
0.760057
0.791398
0.82396
0.857782
0.892902
0.929358
0.967187
1.00642
1.0471
1.08924
1.13289
1.17806
1.22478
1.27304
1.32287
1.37426
1.42722
1.48175
1.53786
1.59553
1.65474
1.71548
1.77772
1.84142
1.90655
1.97307
2.04091
2.11004
2.18037
2.25184
2.32438
2.3979
2.47234
2.54762
2.62358
2.70008
2.77702
2.85432
2.93187
3.00957
3.0873
3.16497
3.24247
3.31969
3.39653
3.47287
3.54859
3.62334
3.69694
3.76929
3.84028
3.90983
3.97785
4.04424
4.10894
4.17182
4.23278
4.29177
4.34872
4.40355
4.45622
4.50666
4.55483
4.60069
4.6442
4.68533
4.72406
4.76036
4.79424
4.82566
4.85464
4.88116
4.90523
4.92689
4.94615
4.96303
4.97757
4.98981
4.99976
5.00748
5.013
5.01635
5.01759
5.01676
5.01389
5.00903
5.00221
4.99347
4.98284
4.97035
4.95604
4.93992
4.92204
4.90239
4.88102
4.85795
4.83319
4.80676
4.7787
4.74904
4.71779
4.68499
4.65068
4.61491
4.5777
4.53912
4.49921
4.45804
4.41565
4.37213
4.32752
4.28191
4.23538
4.18798
4.13982
4.09095
4.04148
3.99148
3.94106
3.89031
3.83933
3.78823
3.73714
3.68619
3.63551
3.58525
3.53555
3.48656
3.43836
3.39101
3.34427
3.2985
0.0442594
0.0579917
0.0721737
0.0831617
0.0924622
0.100857
0.108754
0.116392
0.123926
0.131464
0.139083
0.146841
0.154784
0.162945
0.171355
0.180035
0.189008
0.19829
0.2079
0.217855
0.228171
0.238866
0.249957
0.261462
0.273403
0.285798
0.298668
0.312035
0.325923
0.340357
0.355362
0.370967
0.387201
0.404093
0.421678
0.439987
0.459058
0.478928
0.499634
0.521219
0.543722
0.567181
0.591635
0.617128
0.643705
0.67141
0.700286
0.73038
0.761733
0.794391
0.828395
0.863787
0.900608
0.938895
0.978686
1.02002
1.06292
1.10742
1.15355
1.20135
1.25086
1.302
1.3548
1.40925
1.46537
1.52316
1.5826
1.64367
1.70636
1.77062
1.83644
1.90377
1.97256
2.04276
2.11431
2.18715
2.26119
2.33636
2.41258
2.48975
2.56778
2.64657
2.72598
2.80588
2.88615
2.96668
3.04733
3.12799
3.20855
3.28887
3.36885
3.44837
3.52731
3.60554
3.6827
3.75871
3.83347
3.90687
3.97882
4.04921
4.11795
4.18496
4.25014
4.31339
4.37464
4.43379
4.49078
4.54554
4.59801
4.64813
4.69587
4.74118
4.78403
4.82438
4.86223
4.89756
4.93036
4.96064
4.98838
5.01361
5.03635
5.05662
5.07445
5.08989
5.10298
5.11376
5.12228
5.12859
5.13274
5.13478
5.13478
5.13277
5.12882
5.12297
5.11526
5.10574
5.09445
5.08141
5.06667
5.05025
5.03217
5.01245
4.9911
4.96814
4.94359
4.91746
4.88976
4.8605
4.8297
4.79738
4.76355
4.72826
4.69152
4.65337
4.61385
4.57301
4.53089
4.48754
4.44303
4.39741
4.35075
4.30312
4.2546
4.20526
4.15518
4.10444
4.05315
4.00139
3.94927
3.8969
3.84441
3.79191
3.73957
3.6875
3.63588
3.58482
3.53443
3.48475
3.43558
3.3873
0.0452336
0.057846
0.0718551
0.0827581
0.091965
0.100247
0.108011
0.115497
0.122859
0.130206
0.137615
0.145146
0.152843
0.160743
0.168876
0.177267
0.185939
0.194913
0.204209
0.213847
0.223846
0.234228
0.245014
0.256226
0.267889
0.280028
0.292666
0.30583
0.319548
0.33385
0.34877
0.364339
0.380595
0.397575
0.415317
0.433864
0.453258
0.473545
0.494773
0.516993
0.540265
0.564609
0.59007
0.616701
0.644554
0.673679
0.704123
0.735934
0.769159
0.80384
0.840022
0.877742
0.917041
0.957952
1.00051
1.04474
1.09067
1.13832
1.18771
1.23885
1.29175
1.3464
1.40278
1.46088
1.5207
1.58222
1.64541
1.71024
1.77669
1.84472
1.91427
1.98529
2.05774
2.13155
2.20665
2.28296
2.36041
2.4389
2.51833
2.59862
2.67965
2.7613
2.84344
2.92593
3.00865
3.09144
3.17418
3.25672
3.33893
3.42068
3.50182
3.58227
3.66178
3.74013
3.81729
3.8932
3.96777
4.04088
4.11246
4.18239
4.25059
4.31696
4.38141
4.44385
4.5042
4.56237
4.61829
4.6719
4.72313
4.77194
4.81827
4.86209
4.90338
4.94209
4.97824
5.0118
5.04278
5.07118
5.09703
5.12033
5.14113
5.15944
5.17533
5.18883
5.20002
5.20893
5.21565
5.22021
5.22269
5.22316
5.22168
5.21832
5.21313
5.20618
5.1975
5.18717
5.17521
5.16166
5.14656
5.12993
5.11179
5.09216
5.07104
5.04844
5.02436
4.99881
4.97177
4.94326
4.91328
4.88181
4.84888
4.81449
4.77865
4.74138
4.70271
4.66266
4.62126
4.57857
4.53461
4.48946
4.44315
4.39575
4.34733
4.29796
4.24771
4.19667
4.14492
4.09257
4.0397
3.98644
3.93291
3.87923
3.82554
3.77199
3.71873
3.66589
3.61356
3.56181
3.51045
3.45991
0.0460966
0.0575901
0.0713615
0.0821202
0.0911801
0.0992997
0.106884
0.114174
0.121326
0.128447
0.135616
0.142893
0.150325
0.157949
0.165798
0.173899
0.182278
0.19096
0.199969
0.209329
0.219061
0.229192
0.239749
0.250763
0.262265
0.274293
0.286872
0.300027
0.313797
0.328224
0.343349
0.359216
0.375871
0.393359
0.411732
0.43104