/*--------------------------------*- C++ -*----------------------------------*\
| =========                 |                                                 |
| \\      /  F ield         | OpenFOAM: The Open Source CFD Toolbox           |
|  \\    /   O peration     | Version:  plus                                  |
|   \\  /    A nd           | Website:  www.openfoam.com                      |
|    \\/     M anipulation  |                                                 |
\*---------------------------------------------------------------------------*/
FoamFile
{
    version     2.0;
    format      ascii;
    class       volScalarField;
    location    "200";
    object      nut;
}
// * * * * * * * * * * * * * * * * * * * * * * * * * * * * * * * * * * * * * //

dimensions      [0 2 -1 0 0 0 0];


internalField   nonuniform List<scalar> 
12225
(
3.10726e-05
3.72804e-05
4.1063e-05
4.33129e-05
4.46053e-05
4.52983e-05
4.56161e-05
4.57004e-05
4.56415e-05
4.54966e-05
4.53024e-05
4.50819e-05
4.485e-05
4.46158e-05
4.43851e-05
4.41613e-05
4.39438e-05
4.37554e-05
0.000115969
6.80787e-05
5.08345e-05
4.19919e-05
3.69402e-05
3.38462e-05
3.18537e-05
3.05298e-05
2.96382e-05
2.90412e-05
2.86537e-05
2.84205e-05
2.83042e-05
2.82787e-05
2.83248e-05
2.84281e-05
2.85722e-05
2.87274e-05
0.000369687
0.000222116
0.000160516
0.000126034
0.000104324
8.97018e-05
7.93226e-05
7.16423e-05
6.57707e-05
6.11651e-05
5.74779e-05
5.44775e-05
5.2004e-05
4.99435e-05
4.82117e-05
4.67406e-05
4.54601e-05
4.43746e-05
0.000643171
0.00047461
0.00037284
0.000307186
0.000262042
0.000229584
0.000205372
0.000186742
0.000172033
0.000160165
0.000150415
0.000142279
0.0001354
0.000129517
0.000124434
0.000119999
0.000116095
0.000112739
0.000782976
0.000684105
0.000595763
0.000524427
0.000467967
0.000423232
0.000387439
0.000358423
0.00033458
0.000314736
0.000298026
0.000283805
0.000271588
0.000261003
0.000251762
0.000243643
0.000236482
0.00023026
0.000831985
0.000790857
0.000741137
0.000691161
0.000644838
0.000603554
0.000567429
0.000536037
0.000508784
0.000485079
0.000464385
0.000446245
0.00043027
0.000416142
0.000403595
0.000392414
0.000382435
0.000373644
0.000846544
0.000832364
0.000810937
0.000785018
0.00075715
0.000729175
0.000702232
0.00067692
0.000653496
0.00063201
0.000612402
0.000594555
0.000578328
0.000563575
0.000550159
0.000537952
0.000526856
0.000516916
0.000850452
0.000846003
0.000838205
0.000827297
0.000813968
0.000799037
0.000783248
0.000767192
0.000751298
0.000735856
0.000721051
0.000706988
0.000693718
0.000681258
0.000669597
0.000658717
0.000648599
0.000639355
0.000851413
0.000849951
0.00084732
0.000843303
0.0008379
0.000831266
0.000823641
0.00081529
0.000806463
0.000797376
0.000788207
0.000779097
0.000770151
0.000761447
0.000753041
0.000744971
0.000737271
0.000730076
0.000851628
0.00085097
0.000849986
0.000848531
0.000846511
0.000843894
0.000840698
0.000836981
0.000832821
0.000828307
0.000823528
0.000818566
0.000813494
0.000808379
0.000803273
0.000798222
0.00079327
0.00078853
0.000851669
0.000851202
0.000850672
0.000850021
0.000849197
0.00084816
0.000846885
0.000845366
0.000843607
0.000841627
0.000839451
0.000837107
0.000834627
0.000832041
0.000829378
0.000826667
0.000823937
0.00082126
0.000851674
0.000851244
0.000850815
0.000850368
0.000849879
0.000849327
0.000848695
0.000847969
0.000847141
0.000846209
0.000845175
0.000844045
0.000842828
0.000841535
0.000840177
0.000838767
0.00083732
0.000835881
0.000851673
0.000851249
0.000850844
0.000850452
0.000850064
0.000849671
0.000849264
0.000848837
0.000848381
0.000847893
0.000847369
0.000846807
0.000846208
0.000845574
0.000844906
0.000844208
0.000843488
0.000842768
0.00085167
0.000851246
0.000850845
0.000850464
0.0008501
0.00084975
0.000849411
0.000849079
0.000848751
0.000848424
0.000848095
0.000847763
0.000847426
0.000847083
0.000846733
0.000846377
0.000846016
0.000845665
0.000851668
0.000851242
0.000850839
0.000850458
0.000850097
0.000849754
0.000849428
0.000849116
0.000848818
0.000848532
0.000848256
0.000847989
0.00084773
0.000847478
0.000847233
0.000846992
0.000846759
0.000846544
0.000851666
0.000851239
0.000850834
0.000850452
0.000850089
0.000849745
0.000849419
0.000849109
0.000848814
0.000848533
0.000848265
0.00084801
0.000847765
0.000847532
0.000847308
0.000847093
0.000846889
0.000846707
0.000851665
0.000851236
0.00085083
0.000850446
0.000850082
0.000849737
0.000849409
0.000849097
0.000848801
0.000848519
0.00084825
0.000847995
0.00084775
0.000847517
0.000847295
0.000847083
0.000846882
0.000846704
0.000851664
0.000851235
0.000850828
0.000850443
0.000850077
0.000849731
0.000849401
0.000849089
0.000848791
0.000848507
0.000848237
0.00084798
0.000847734
0.0008475
0.000847276
0.000847062
0.000846861
0.000846681
0.000851664
0.000851234
0.000850828
0.000850442
0.000850076
0.000849729
0.000849399
0.000849085
0.000848786
0.000848502
0.000848231
0.000847972
0.000847725
0.00084749
0.000847264
0.000847049
0.000846846
0.000846666
0.000851665
0.000851236
0.000850829
0.000850444
0.000850079
0.000849731
0.000849401
0.000849087
0.000848788
0.000848502
0.000848229
0.000847968
0.000847718
0.000847478
0.000847248
0.000847027
0.000846818
0.000846629
0.000851666
0.000851238
0.000850832
0.000850447
0.00085008
0.00084973
0.000849395
0.000849072
0.000848761
0.000848458
0.000848163
0.000847875
0.000847592
0.000847313
0.000847038
0.000846766
0.000846499
0.000846248
0.000851667
0.000851238
0.000850828
0.000850429
0.000850036
0.000849641
0.000849238
0.000848822
0.000848387
0.000847929
0.000847447
0.000846939
0.000846405
0.000845846
0.000845262
0.000844656
0.000844033
0.000843408
0.000851663
0.000851204
0.000850712
0.00085015
0.000849486
0.000848693
0.000847752
0.000846656
0.000845402
0.000843997
0.00084245
0.000840777
0.000838993
0.000837114
0.00083516
0.000833146
0.00083109
0.000829027
0.000851577
0.000850777
0.000849525
0.000847682
0.000845177
0.000842003
0.000838205
0.00083386
0.00082906
0.000823902
0.000818481
0.000812882
0.00080718
0.000801439
0.000795713
0.000790045
0.000784473
0.000779061
0.000850693
0.00084711
0.000840901
0.000832169
0.000821333
0.000808942
0.000795544
0.000781614
0.000767527
0.000753566
0.00073993
0.000726753
0.000714121
0.000702083
0.000690659
0.000679852
0.000669656
0.000660101
0.0008436
0.000823613
0.000795656
0.000763709
0.000730651
0.000698342
0.000667818
0.000639551
0.000613671
0.000590128
0.000568783
0.000549452
0.000531946
0.000516079
0.000501676
0.000488581
0.000476658
0.000465821
0.000798975
0.00071653
0.000637757
0.000570419
0.000514442
0.000468265
0.000430092
0.000398312
0.000371624
0.000349018
0.000329708
0.000313084
0.000298666
0.000286078
0.000275021
0.000265254
0.000256587
0.000248879
0.000605338
0.000437554
0.000341981
0.000280297
0.000237307
0.000206017
0.000182462
0.000164223
0.000149772
0.000138104
0.000128533
0.000120574
0.000113877
0.000108184
0.000103301
9.90831e-05
9.542e-05
9.22417e-05
0.000228404
0.000138563
0.000102674
8.24788e-05
6.9652e-05
6.10118e-05
5.49332e-05
5.05108e-05
4.72096e-05
4.46959e-05
4.27518e-05
4.12297e-05
4.00269e-05
3.907e-05
3.83056e-05
3.7694e-05
3.72058e-05
3.68235e-05
3.56041e-05
4.09355e-05
4.47624e-05
4.75227e-05
4.97549e-05
5.15316e-05
5.29224e-05
5.39916e-05
5.47967e-05
5.53876e-05
5.58062e-05
5.60875e-05
5.62602e-05
5.63476e-05
5.63685e-05
5.6338e-05
5.62685e-05
5.61689e-05
3.61642e-06
9.18498e-06
1.0209e-05
1.09474e-05
1.16484e-05
1.22966e-05
1.29777e-05
1.38869e-05
1.49108e-05
1.60099e-05
1.7139e-05
1.82722e-05
1.93966e-05
2.05058e-05
2.15969e-05
2.26684e-05
2.37201e-05
2.47524e-05
2.57659e-05
2.67616e-05
2.77407e-05
2.87045e-05
2.96541e-05
3.05909e-05
3.15161e-05
3.2431e-05
3.33366e-05
3.42342e-05
3.51248e-05
3.60096e-05
3.68895e-05
3.77656e-05
3.8639e-05
3.95109e-05
4.03823e-05
4.12546e-05
4.21294e-05
4.30083e-05
4.38936e-05
4.47878e-05
4.56941e-05
4.66166e-05
4.75607e-05
4.8522e-05
4.94878e-05
5.04574e-05
5.14311e-05
5.24089e-05
5.33907e-05
5.43765e-05
5.53664e-05
5.63601e-05
5.73575e-05
5.83584e-05
5.93626e-05
6.03699e-05
6.13801e-05
6.23927e-05
6.34076e-05
6.44243e-05
6.54426e-05
6.6462e-05
6.74822e-05
6.85027e-05
6.95231e-05
7.0543e-05
7.15619e-05
7.25793e-05
7.35947e-05
7.46077e-05
7.56176e-05
7.66241e-05
7.76265e-05
7.86243e-05
7.96169e-05
8.06038e-05
8.15845e-05
8.25582e-05
8.35245e-05
8.44827e-05
8.54322e-05
8.63723e-05
8.73024e-05
8.82219e-05
8.913e-05
9.00261e-05
9.09094e-05
9.17792e-05
9.26347e-05
9.34752e-05
9.42999e-05
9.5108e-05
9.58989e-05
9.66718e-05
9.7426e-05
9.8161e-05
9.88765e-05
9.95722e-05
0.000100248
0.000100905
0.000101545
0.000102169
0.000102789
0.000103383
0.000103951
0.000104494
0.000105012
0.000105504
0.000105969
0.000106409
0.000106822
0.000107207
0.000107566
0.000107897
0.000108201
0.000108476
0.000108722
0.00010894
0.000109129
0.000109288
0.000109417
0.000109516
0.000109585
0.000109623
0.000109631
0.000109607
0.000109552
0.000109465
0.000109346
0.000109196
0.000109014
0.000108799
0.000108553
0.000108275
0.000107964
0.000107622
0.000107248
0.000106842
0.000106406
0.000105938
0.00010544
0.000104912
0.000104355
0.000103769
0.000103155
0.000102514
0.000101846
0.000101153
0.000100436
9.96946e-05
9.89312e-05
9.81468e-05
9.73424e-05
9.65201e-05
9.56803e-05
9.48261e-05
9.39568e-05
9.30729e-05
9.21948e-05
9.13502e-05
9.06703e-05
9.00874e-05
8.94997e-05
8.89175e-05
8.83304e-05
8.77373e-05
8.71439e-05
8.65517e-05
8.59601e-05
8.53695e-05
8.47809e-05
8.41948e-05
8.36111e-05
8.30285e-05
8.24431e-05
8.18466e-05
8.12216e-05
8.05239e-05
7.9662e-05
7.83985e-05
5.06282e-06
2.29748e-05
4.54965e-05
6.11348e-05
6.93902e-05
7.37897e-05
7.64948e-05
7.86315e-05
8.08551e-05
8.33865e-05
8.62669e-05
8.94796e-05
9.29945e-05
9.67824e-05
0.000100817
0.000105075
0.000109534
0.000114177
0.000118986
0.000123945
0.000129043
0.000134266
0.000139605
0.000145051
0.000150595
0.000156231
0.000161953
0.000167754
0.000173631
0.00017958
0.000185596
0.000191675
0.000197814
0.000204009
0.000210256
0.000216551
0.00022289
0.000229268
0.00023568
0.000242124
0.000248596
0.000255097
0.000261637
0.000268236
0.000274909
0.000281663
0.000288505
0.000295437
0.000302464
0.000309589
0.000316814
0.000324141
0.000331571
0.000339106
0.000346747
0.000354495
0.000362349
0.00037031
0.000378378
0.000386551
0.000394831
0.000403214
0.000411701
0.000420289
0.000428977
0.000437762
0.000446643
0.000455617
0.000464681
0.000473833
0.000483071
0.00049239
0.000501788
0.000511263
0.00052081
0.000530427
0.000540111
0.000549859
0.000559667
0.000569533
0.000579452
0.000589423
0.00059944
0.000609501
0.000619601
0.000629735
0.000639899
0.000650086
0.000660289
0.000670501
0.000680711
0.000690911
0.000701087
0.000711226
0.000721313
0.000731331
0.000741258
0.000751069
0.000760735
0.000770222
0.00077949
0.000788491
0.000796915
0.000805148
0.000813235
0.00082118
0.000828983
0.00083664
0.000844148
0.000851502
0.0008587
0.000865737
0.000872608
0.000879308
0.000885833
0.000892175
0.000898331
0.000904292
0.000910053
0.000915608
0.000920949
0.00092607
0.000930964
0.000935625
0.000940045
0.000944217
0.000948134
0.000951787
0.000955171
0.000958277
0.000961101
0.000963636
0.000965875
0.000967813
0.000969443
0.000970762
0.000971767
0.000972454
0.000972819
0.000972861
0.000972579
0.000971974
0.000971045
0.000969794
0.000968226
0.000966345
0.000964153
0.000961657
0.000958869
0.000955789
0.000952432
0.000948809
0.000944924
0.0009408
0.000936442
0.000931864
0.000927119
0.000922161
0.000916891
0.000911153
0.00090412
0.000895747
0.000886947
0.000878035
0.000869059
0.000860073
0.000851116
0.000842202
0.000833338
0.000824536
0.000815806
0.000807156
0.000798586
0.000790093
0.000781659
0.000773247
0.000764777
0.000756075
0.000746084
0.000723204
6.07656e-06
3.86081e-05
7.55001e-05
0.000100919
0.000117091
0.000127461
0.000134709
0.000140611
0.000146213
0.00015204
0.000158304
0.000165064
0.000172315
0.000180026
0.000188162
0.000196685
0.000205562
0.00021476
0.000224251
0.000234006
0.000244003
0.000254219
0.000264636
0.000275237
0.000286008
0.000296937
0.000308013
0.000319227
0.000330572
0.000342043
0.000353634
0.000365341
0.000377163
0.000389096
0.000401139
0.000413292
0.000425556
0.000437932
0.000450423
0.000463034
0.000475773
0.000488647
0.000501671
0.000514859
0.000528223
0.000541773
0.000555517
0.000569464
0.000583618
0.000597986
0.000612571
0.000627378
0.000642409
0.000657667
0.000673155
0.000688873
0.000704822
0.000721001
0.000737411
0.00075405
0.000770916
0.000788007
0.00080532
0.00082285
0.000840595
0.000858548
0.000876706
0.000895061
0.000913608
0.00093234
0.00095125
0.00097033
0.000989573
0.00100897
0.00102851
0.00104819
0.001068
0.00108793
0.00110797
0.00112811
0.00114835
0.00116866
0.00118904
0.00120949
0.00122998
0.00125051
0.00127105
0.00129161
0.00131215
0.00133267
0.00135313
0.00137353
0.00139382
0.00141399
0.00143401
0.00145383
0.00147343
0.00149276
0.00151178
0.00153045
0.00154873
0.00156634
0.00158338
0.00160004
0.00161639
0.00163242
0.00164814
0.00166353
0.0016786
0.00169333
0.00170772
0.00172176
0.00173544
0.00174875
0.00176169
0.00177424
0.00178639
0.00179813
0.00180945
0.00182034
0.00183079
0.00184078
0.0018503
0.00185933
0.00186788
0.00187592
0.00188343
0.00189042
0.00189685
0.00190273
0.00190803
0.00191275
0.00191687
0.00192039
0.00192329
0.00192557
0.00192721
0.00192822
0.00192858
0.0019283
0.00192736
0.00192578
0.00192354
0.00192066
0.00191714
0.00191299
0.00190822
0.00190284
0.00189686
0.00189031
0.00188319
0.00187554
0.00186738
0.00185873
0.00184964
0.00184012
0.00183021
0.00181994
0.0018091
0.00179751
0.00178459
0.00177026
0.00175521
0.00173978
0.00172413
0.00170835
0.00169251
0.00167664
0.00166079
0.00164497
0.0016292
0.00161351
0.0015979
0.00158236
0.00156684
0.00155126
0.00153538
0.00151869
0.00149921
0.00146675
6.81456e-06
5.11586e-05
9.90106e-05
0.000133796
0.000157677
0.000174297
0.000186633
0.000196797
0.000206143
0.000215448
0.000225107
0.000235283
0.000246025
0.000257322
0.00026914
0.000281439
0.000294175
0.00030731
0.000320804
0.000334627
0.000348746
0.000363137
0.000377776
0.000392644
0.000407726
0.000423007
0.000438476
0.000454126
0.00046995
0.000485943
0.000502104
0.00051843
0.000534923
0.000551585
0.000568418
0.000585427
0.000602618
0.000619998
0.000637575
0.00065536
0.000673362
0.000691593
0.000710065
0.000728792
0.000747784
0.000767052
0.000786605
0.000806451
0.000826598
0.000847053
0.00086782
0.000888905
0.00091031
0.00093204
0.000954096
0.000976478
0.000999188
0.00102222
0.00104558
0.00106927
0.00109327
0.00111758
0.00114221
0.00116714
0.00119236
0.00121787
0.00124366
0.00126972
0.00129604
0.0013226
0.0013494
0.00137643
0.00140366
0.00143109
0.0014587
0.00148648
0.00151441
0.00154248
0.00157066
0.00159895
0.00162733
0.00165577
0.00168427
0.0017128
0.00174134
0.00176987
0.00179838
0.00182684
0.00185522
0.0018835
0.00191165
0.00193965
0.00196745
0.00199503
0.00202234
0.00204935
0.00207602
0.00210229
0.00212813
0.00215349
0.00217833
0.00220239
0.00222586
0.00224883
0.00227135
0.00229341
0.00231502
0.00233617
0.00235685
0.00237706
0.00239679
0.00241604
0.00243478
0.00245301
0.00247072
0.0024879
0.00250453
0.00252061
0.00253611
0.00255103
0.00256535
0.00257905
0.00259213
0.00260456
0.00261633
0.00262743
0.00263784
0.00264753
0.0026565
0.00266472
0.00267219
0.00267888
0.00268477
0.00268987
0.00269413
0.00269757
0.00270016
0.00270189
0.00270275
0.00270274
0.00270185
0.00270007
0.00269741
0.00269386
0.00268944
0.00268414
0.00267798
0.00267097
0.00266312
0.00265446
0.00264501
0.0026348
0.00262386
0.00261222
0.00259993
0.00258703
0.00257352
0.00255943
0.00254463
0.00252898
0.00251216
0.00249412
0.00247523
0.00245576
0.0024359
0.00241575
0.0023954
0.00237491
0.00235433
0.00233371
0.00231307
0.00229245
0.00227186
0.00225129
0.0022307
0.00220997
0.0021888
0.00216654
0.00214117
0.00210629
7.70322e-06
5.88378e-05
0.000117141
0.000161407
0.000193152
0.000216197
0.000233796
0.000248339
0.000261441
0.000274107
0.000286907
0.00030013
0.000313897
0.00032824
0.000343142
0.000358569
0.000374479
0.00039083
0.000407581
0.000424697
0.000442146
0.0004599
0.000477934
0.000496231
0.000514774
0.000533549
0.000552548
0.000571764
0.000591192
0.000610829
0.000630677
0.000650737
0.000671012
0.000691508
0.00071223
0.000733187
0.000754387
0.000775841
0.000797558
0.000819552
0.000841832
0.000864412
0.000887304
0.000910519
0.000934069
0.000957963
0.000982211
0.00100682
0.00103181
0.00105716
0.00108291
0.00110904
0.00113556
0.00116248
0.00118979
0.00121749
0.00124559
0.00127409
0.00130297
0.00133224
0.00136189
0.00139192
0.00142231
0.00145306
0.00148415
0.00151558
0.00154733
0.0015794
0.00161176
0.0016444
0.0016773
0.00171045
0.00174382
0.00177741
0.00181118
0.00184512
0.00187921
0.00191342
0.00194773
0.00198212
0.00201656
0.00205104
0.00208552
0.00211998
0.0021544
0.00218875
0.002223
0.00225713
0.00229111
0.00232491
0.00235849
0.00239182
0.00242488
0.00245761
0.00248999
0.00252197
0.00255351
0.00258457
0.0026151
0.00264506
0.00267438
0.00270291
0.0027308
0.00275811
0.00278487
0.00281109
0.00283675
0.00286187
0.00288643
0.00291042
0.00293385
0.00295669
0.00297895
0.00300061
0.00302167
0.00304211
0.00306192
0.00308108
0.0030996
0.00311744
0.0031346
0.00315107
0.00316682
0.00318185
0.00319613
0.00320966
0.0032224
0.00323435
0.00324548
0.00325577
0.00326521
0.00327377
0.00328144
0.0032882
0.00329402
0.00329889
0.0033028
0.00330572
0.00330764
0.00330854
0.00330842
0.00330727
0.00330507
0.00330183
0.00329754
0.00329221
0.00328584
0.00327844
0.00327002
0.00326061
0.00325022
0.00323888
0.00322663
0.0032135
0.00319952
0.00318474
0.00316917
0.00315283
0.00313567
0.00311758
0.00309842
0.00307817
0.00305701
0.00303513
0.00301269
0.00298981
0.00296657
0.00294307
0.00291934
0.00289546
0.00287147
0.0028474
0.0028233
0.00279915
0.00277495
0.00275056
0.00272572
0.00269979
0.00267112
0.00263592
8.59539e-06
6.34893e-05
0.000130821
0.000184216
0.000223795
0.000253338
0.00027629
0.000295268
0.000312107
0.000328014
0.000343731
0.000359676
0.00037606
0.000392972
0.000410432
0.000428422
0.000446912
0.000465862
0.000485235
0.000504995
0.000525111
0.000545556
0.000566308
0.000587346
0.000608657
0.000630229
0.000652054
0.000674127
0.000696445
0.000719008
0.000741818
0.000764879
0.000788196
0.000811776
0.000835628
0.000859761
0.000884185
0.000908912
0.000933954
0.000959321
0.000985027
0.00101108
0.0010375
0.0010643
0.00109147
0.00111904
0.00114702
0.00117541
0.00120422
0.00123345
0.00126312
0.00129322
0.00132376
0.00135474
0.00138617
0.00141803
0.00145034
0.00148308
0.00151625
0.00154984
0.00158386
0.00161828
0.00165311
0.00168832
0.0017239
0.00175985
0.00179615
0.00183277
0.00186971
0.00190694
0.00194443
0.00198218
0.00202016
0.00205834
0.00209669
0.0021352
0.00217383
0.00221256
0.00225136
0.00229019
0.00232904
0.00236787
0.00240666
0.00244536
0.00248396
0.00252242
0.00256071
0.0025988
0.00263666
0.00267426
0.00271156
0.00274854
0.00278515
0.00282137
0.00285715
0.00289246
0.00292726
0.00296151
0.00299517
0.00302821
0.00306044
0.00309193
0.00312275
0.00315294
0.00318252
0.0032115
0.00323987
0.00326763
0.00329478
0.00332132
0.00334723
0.00337251
0.00339716
0.00342117
0.00344453
0.00346724
0.00348927
0.00351063
0.0035313
0.00355127
0.00357053
0.00358906
0.00360685
0.0036239
0.00364018
0.00365567
0.00367036
0.00368423
0.00369725
0.00370941
0.00372069
0.00373107
0.00374052
0.00374902
0.00375654
0.00376307
0.00376858
0.00377304
0.00377644
0.00377875
0.00377997
0.00378006
0.00377901
0.00377681
0.00377348
0.00376896
0.00376329
0.00375646
0.00374847
0.00373934
0.00372908
0.00371772
0.00370529
0.00369182
0.00367735
0.0036619
0.00364549
0.00362816
0.00360987
0.00359059
0.00357025
0.00354885
0.00352649
0.00350329
0.00347939
0.0034549
0.0034299
0.00340448
0.0033787
0.00335264
0.00332634
0.00329988
0.00327329
0.0032466
0.0032198
0.00319281
0.00316542
0.00313708
0.0031066
0.00307172
9.36457e-06
6.6408e-05
0.000141057
0.00020273
0.000249788
0.000285704
0.000313981
0.000337386
0.000357926
0.00037698
0.000395443
0.00041386
0.00043254
0.000451641
0.00047123
0.00049132
0.000511896
0.000532934
0.0005544
0.000576264
0.000598497
0.000621075
0.000643975
0.000667182
0.000690681
0.000714463
0.00073852
0.000762851
0.000787452
0.000812326
0.000837475
0.000862905
0.000888623
0.000914636
0.000940954
0.000967586
0.000994545
0.00102184
0.00104949
0.00107749
0.00110587
0.00113464
0.0011638
0.00119337
0.00122336
0.00125377
0.00128462
0.00131592
0.00134766
0.00137987
0.00141254
0.00144567
0.00147927
0.00151334
0.00154788
0.00158289
0.00161836
0.00165429
0.00169068
0.00172751
0.00176478
0.00180249
0.0018406
0.00187912
0.00191803
0.00195732
0.00199696
0.00203693
0.00207722
0.0021178
0.00215865
0.00219975
0.00224106
0.00228257
0.00232423
0.00236603
0.00240793
0.00244989
0.00249189
0.00253389
0.00257587
0.00261777
0.00265958
0.00270125
0.00274275
0.00278405
0.00282512
0.00286591
0.00290641
0.00294657
0.00298637
0.00302578
0.00306475
0.00310326
0.00314127
0.00317876
0.00321567
0.00325198
0.00328764
0.00332262
0.00335677
0.00339018
0.00342291
0.00345499
0.00348642
0.00351721
0.00354737
0.00357688
0.00360576
0.00363399
0.00366157
0.00368851
0.00371479
0.00374041
0.00376537
0.00378967
0.00381329
0.00383622
0.00385847
0.00388002
0.00390087
0.00392099
0.00394039
0.00395906
0.00397697
0.00399412
0.00401049
0.00402605
0.00404079
0.00405469
0.00406773
0.00407989
0.00409114
0.00410144
0.00411078
0.00411912
0.00412645
0.00413273
0.00413793
0.00414201
0.00414498
0.00414679
0.0041474
0.0041468
0.00414502
0.00414196
0.00413765
0.00413209
0.00412527
0.0041172
0.00410789
0.00409736
0.00408563
0.00407272
0.00405865
0.00404346
0.00402717
0.00400979
0.00399134
0.0039718
0.00395115
0.00392941
0.00390663
0.0038829
0.00385833
0.00383302
0.00380704
0.00378049
0.00375344
0.00372597
0.00369814
0.00367002
0.00364168
0.00361317
0.0035845
0.00355564
0.00352643
0.00349647
0.0034649
0.00343037
1.00174e-05
6.8098e-05
0.00014847
0.000217396
0.000271375
0.000313373
0.000346827
0.000374575
0.000398745
0.00042085
0.000441918
0.00046261
0.000483333
0.000504319
0.00052569
0.000547497
0.000569751
0.000592444
0.000615555
0.000639061
0.000662937
0.000687164
0.000711722
0.000736596
0.000761775
0.000787251
0.000813017
0.000839072
0.000865416
0.00089205
0.000918979
0.000946208
0.000973745
0.0010016
0.00102978
0.00105829
0.00108716
0.00111638
0.00114597
0.00117594
0.00120631
0.00123708
0.00126827
0.00129989
0.00133194
0.00136444
0.00139739
0.0014308
0.00146468
0.00149904
0.00153387
0.00156918
0.00160498
0.00164125
0.00167801
0.00171525
0.00175297
0.00179116
0.00182981
0.00186892
0.00190848
0.00194847
0.00198889
0.00202972
0.00207094
0.00211254
0.0021545
0.0021968
0.00223941
0.00228232
0.00232549
0.0023689
0.00241253
0.00245633
0.00250029
0.00254436
0.00258851
0.00263271
0.00267692
0.00272111
0.00276523
0.00280925
0.00285312
0.00289682
0.00294031
0.00298354
0.00302648
0.0030691
0.00311136
0.00315323
0.00319467
0.00323567
0.00327618
0.00331617
0.00335562
0.00339449
0.00343275
0.00347037
0.00350731
0.00354349
0.00357888
0.00361355
0.00364753
0.00368085
0.00371352
0.00374553
0.00377688
0.00380758
0.00383763
0.00386703
0.00389577
0.00392385
0.00395128
0.00397806
0.00400417
0.00402962
0.00405441
0.00407854
0.00410199
0.00412477
0.00414686
0.00416827
0.00418899
0.00420901
0.00422833
0.00424693
0.00426479
0.0042819
0.00429824
0.00431379
0.00432853
0.00434245
0.00435551
0.00436768
0.00437891
0.0043892
0.00439853
0.00440683
0.00441406
0.0044202
0.00442523
0.00442912
0.00443177
0.00443319
0.00443336
0.00443225
0.00442983
0.0044261
0.00442104
0.00441465
0.00440693
0.00439789
0.00438753
0.00437587
0.00436293
0.00434872
0.00433328
0.0043166
0.00429872
0.00427964
0.00425936
0.0042379
0.00421531
0.00419165
0.00416701
0.00414147
0.00411511
0.00408802
0.00406027
0.00403196
0.00400315
0.00397393
0.00394438
0.00391457
0.00388455
0.00385432
0.00382379
0.00379267
0.00376033
0.00372593
1.05681e-05
6.88573e-05
0.000153521
0.000228625
0.000288848
0.00033652
0.000374903
0.000406834
0.000434514
0.000459555
0.000483091
0.000505888
0.000528442
0.00055106
0.00057392
0.000597119
0.000620698
0.000644671
0.000669033
0.00069377
0.000718867
0.000744308
0.000770077
0.000796163
0.000822556
0.000849249
0.000876239
0.000903523
0.000931103
0.000958982
0.000987163
0.00101565
0.00104446
0.00107359
0.00110306
0.00113287
0.00116304
0.00119358
0.00122449
0.00125579
0.00128749
0.00131961
0.00135215
0.00138511
0.00141852
0.00145238
0.0014867
0.00152148
0.00155673
0.00159246
0.00162867
0.00166537
0.00170254
0.0017402
0.00177835
0.00181698
0.00185609
0.00189567
0.00193572
0.00197624
0.0020172
0.0020586
0.00210044
0.00214269
0.00218533
0.00222836
0.00227176
0.0023155
0.00235956
0.00240392
0.00244855
0.00249343
0.00253852
0.0025838
0.00262922
0.00267476
0.00272038
0.00276605
0.00281171
0.00285734
0.00290289
0.00294832
0.00299359
0.00303865
0.00308347
0.003128
0.00317221
0.00321605
0.00325949
0.0033025
0.00334504
0.00338709
0.00342861
0.00346957
0.00350995
0.00354972
0.00358885
0.0036273
0.00366504
0.00370201
0.00373825
0.00377379
0.00380866
0.00384286
0.0038764
0.00390928
0.00394151
0.00397307
0.00400398
0.00403424
0.00406384
0.00409278
0.00412108
0.00414872
0.00417572
0.00420208
0.00422779
0.00425286
0.00427728
0.00430107
0.0043242
0.0043467
0.00436855
0.00438976
0.00441032
0.00443023
0.00444947
0.00446803
0.00448588
0.00450301
0.00451942
0.0045351
0.00454999
0.00456405
0.00457725
0.00458958
0.00460102
0.00461151
0.00462096
0.00462935
0.00463666
0.00464283
0.00464782
0.00465159
0.00465411
0.00465533
0.00465523
0.00465377
0.00465095
0.00464674
0.00464112
0.0046341
0.00462566
0.00461581
0.00460456
0.00459193
0.00457791
0.00456254
0.00454582
0.00452777
0.00450841
0.00448776
0.00446585
0.00444274
0.0044185
0.00439321
0.00436694
0.00433977
0.00431179
0.00428308
0.00425374
0.00422385
0.0041935
0.0041628
0.00413181
0.00410057
0.00406903
0.00403701
0.00400403
0.00396953
1.10297e-05
6.89004e-05
0.000156595
0.000236807
0.000302531
0.000355381
0.000398363
0.000434251
0.000465269
0.000493097
0.000518952
0.000543685
0.000567873
0.000591894
0.000615984
0.000640282
0.000664867
0.000689778
0.000715026
0.000740614
0.000766534
0.000792777
0.000819334
0.000846194
0.000873352
0.000900803
0.000928544
0.000956574
0.000984895
0.00101351
0.00104242
0.00107164
0.00110118
0.00113103
0.00116122
0.00119174
0.00122262
0.00125386
0.00128547
0.00131746
0.00134985
0.00138264
0.00141585
0.00144948
0.00148355
0.00151805
0.00155301
0.00158842
0.0016243
0.00166064
0.00169746
0.00173475
0.00177253
0.00181078
0.00184951
0.00188872
0.00192842
0.00196858
0.00200922
0.00205032
0.00209187
0.00213388
0.00217632
0.00221919
0.00226247
0.00230615
0.00235021
0.00239463
0.00243939
0.00248447
0.00252984
0.00257548
0.00262136
0.00266744
0.00271369
0.00276009
0.00280658
0.00285313
0.00289969
0.00294624
0.00299271
0.00303907
0.00308526
0.00313125
0.00317698
0.00322242
0.00326751
0.00331222
0.0033565
0.00340032
0.00344364
0.00348643
0.00352867
0.00357031
0.00361134
0.00365174
0.00369146
0.00373049
0.00376879
0.00380639
0.0038433
0.00387954
0.00391511
0.00395003
0.0039843
0.0040179
0.00405084
0.00408313
0.00411476
0.00414573
0.00417604
0.00420571
0.00423473
0.00426311
0.00429086
0.00431798
0.00434448
0.00437036
0.00439562
0.00442028
0.00444433
0.00446778
0.00449065
0.00451293
0.00453463
0.00455577
0.0045763
0.00459622
0.00461552
0.00463419
0.00465223
0.00466964
0.00468638
0.00470236
0.00471757
0.00473199
0.00474559
0.00475831
0.0047701
0.0047809
0.00479068
0.00479938
0.00480695
0.00481334
0.0048185
0.00482238
0.00482493
0.00482613
0.00482593
0.00482429
0.0048212
0.00481663
0.00481057
0.004803
0.00479392
0.00478333
0.00477125
0.00475766
0.0047426
0.00472607
0.0047081
0.00468869
0.0046679
0.00464576
0.00462234
0.00459769
0.00457191
0.00454506
0.00451723
0.00448851
0.00445899
0.00442878
0.00439798
0.00436671
0.00433505
0.00430307
0.00427077
0.00423802
0.00420445
0.00416965
1.14127e-05
6.83952e-05
0.000158027
0.000242315
0.000312758
0.00037023
0.000417412
0.000456964
0.000491094
0.000521518
0.00054951
0.000575993
0.000601612
0.000626807
0.00065187
0.000676985
0.000702266
0.000727779
0.000753559
0.00077962
0.000805969
0.000832603
0.000859518
0.000886711
0.000914177
0.000941914
0.000969921
0.000998197
0.00102675
0.00105557
0.00108468
0.00111407
0.00114376
0.00117376
0.00120406
0.00123469
0.00126565
0.00129695
0.00132861
0.00136062
0.00139302
0.0014258
0.00145897
0.00149255
0.00152654
0.00156095
0.0015958
0.00163108
0.00166681
0.001703
0.00173965
0.00177676
0.00181434
0.00185239
0.00189092
0.00192993
0.00196942
0.00200939
0.00204983
0.00209075
0.00213215
0.00217401
0.00221633
0.0022591
0.00230231
0.00234595
0.00239001
0.00243447
0.00247931
0.00252451
0.00257005
0.0026159
0.00266203
0.00270842
0.00275503
0.00280183
0.00284876
0.00289581
0.00294291
0.00299002
0.0030371
0.00308409
0.00313095
0.00317762
0.00322405
0.00327018
0.00331598
0.00336138
0.00340635
0.00345084
0.00349481
0.00353823
0.00358107
0.00362328
0.00366486
0.00370577
0.00374599
0.00378549
0.00382436
0.00386258
0.00390015
0.00393707
0.00397335
0.00400898
0.00404395
0.00407826
0.00411191
0.00414489
0.00417721
0.00420887
0.00423988
0.00427023
0.00429993
0.004329
0.00435745
0.00438528
0.00441251
0.00443914
0.00446518
0.00449064
0.00451553
0.00453987
0.00456367
0.00458695
0.00460972
0.00463202
0.00465378
0.004675
0.0046957
0.00471586
0.00473549
0.00475456
0.00477306
0.00479094
0.00480816
0.0048247
0.00484052
0.00485557
0.00486978
0.00488312
0.00489552
0.00490692
0.00491727
0.00492649
0.00493453
0.00494133
0.00494683
0.00495098
0.00495371
0.004955
0.00495479
0.00495304
0.00494973
0.00494484
0.00493834
0.00493022
0.00492048
0.00490912
0.00489614
0.00488155
0.00486537
0.00484762
0.00482833
0.00480754
0.00478531
0.00476168
0.00473674
0.00471056
0.00468323
0.00465483
0.00462547
0.00459526
0.00456432
0.00453276
0.00450069
0.00446821
0.00443534
0.004402
0.00436788
0.00433266
1.17266e-05
6.74785e-05
0.000158116
0.000245503
0.000319868
0.00038135
0.000432268
0.000475125
0.000512077
0.000544846
0.000574746
0.000602751
0.000629563
0.000655677
0.000681434
0.000707063
0.000732711
0.000758472
0.000784404
0.000810538
0.000836893
0.000863475
0.000890289
0.000917335
0.000944613
0.000972122
0.000999864
0.00102784
0.00105605
0.00108451
0.00111321
0.00114217
0.00117139
0.00120087