/*--------------------------------*- C++ -*----------------------------------*\
| =========                 |                                                 |
| \\      /  F ield         | OpenFOAM: The Open Source CFD Toolbox           |
|  \\    /   O peration     | Version:  plus                                  |
|   \\  /    A nd           | Website:  www.openfoam.com                      |
|    \\/     M anipulation  |                                                 |
\*---------------------------------------------------------------------------*/
FoamFile
{
    version     2.0;
    format      ascii;
    class       volScalarField;
    location    "200";
    object      p;
}
// * * * * * * * * * * * * * * * * * * * * * * * * * * * * * * * * * * * * * //

dimensions      [0 2 -2 0 0 0 0];


internalField   nonuniform List<scalar> 
12225
(
-1.60079
-4.026
-4.89642
-5.15414
-5.31429
-5.45602
-5.57447
-5.67276
-5.7586
-5.83714
-5.91084
-5.98107
-6.04887
-6.11509
-6.1803
-6.24428
-6.3026
-6.29513
-4.97629
-5.41035
-5.61305
-5.60167
-5.60758
-5.6536
-5.71178
-5.77071
-5.82988
-5.88981
-5.95025
-6.01083
-6.0715
-6.13238
-6.19365
-6.25549
-6.32187
-6.43443
-5.07844
-4.94569
-5.13963
-5.25535
-5.35287
-5.46153
-5.56609
-5.65964
-5.74443
-5.82338
-5.89803
-5.96936
-6.03819
-6.10535
-6.17169
-6.23867
-6.31183
-6.41206
-4.95129
-4.90468
-5.16587
-5.33873
-5.44962
-5.55143
-5.64499
-5.72747
-5.80191
-5.87156
-5.93815
-6.00258
-6.06555
-6.12778
-6.19008
-6.25398
-6.32339
-6.40634
-4.97224
-5.00228
-5.22294
-5.3729
-5.46656
-5.55356
-5.63777
-5.71539
-5.78753
-5.85629
-5.92277
-5.98752
-6.05102
-6.1138
-6.17659
-6.24061
-6.30807
-6.38102
-5.03658
-5.07916
-5.24754
-5.37907
-5.47003
-5.55527
-5.63873
-5.71673
-5.78954
-5.85876
-5.92542
-5.99007
-6.05322
-6.11538
-6.17721
-6.23956
-6.30342
-6.36854
-5.09437
-5.1334
-5.26701
-5.38786
-5.4791
-5.5631
-5.64459
-5.72115
-5.79283
-5.86098
-5.92656
-5.99012
-6.05212
-6.11301
-6.17326
-6.23334
-6.29347
-6.35244
-5.14601
-5.18172
-5.29138
-5.40153
-5.49045
-5.57171
-5.65023
-5.7247
-5.79494
-5.86192
-5.92644
-5.98898
-6.0499
-6.10954
-6.16817
-6.22596
-6.2827
-6.33698
-5.19493
-5.22767
-5.31856
-5.41719
-5.50201
-5.58008
-5.65562
-5.72792
-5.79664
-5.86239
-5.92578
-5.98718
-6.04687
-6.10506
-6.16187
-6.21727
-6.27086
-6.32134
-5.2414
-5.27081
-5.34663
-5.43415
-5.51407
-5.58879
-5.66132
-5.73129
-5.79828
-5.86259
-5.92464
-5.98471
-6.04297
-6.09953
-6.15441
-6.20744
-6.25818
-6.30554
-5.28511
-5.31103
-5.37483
-5.45223
-5.52683
-5.59796
-5.66738
-5.73485
-5.79988
-5.86254
-5.92307
-5.98163
-6.03831
-6.09314
-6.14603
-6.19679
-6.24496
-6.28972
-5.32254
-5.34542
-5.40039
-5.46951
-5.53903
-5.60668
-5.67317
-5.73822
-5.80129
-5.86229
-5.92128
-5.97834
-6.03348
-6.08665
-6.13773
-6.1865
-6.23257
-6.27524
-5.357
-5.37726
-5.42496
-5.48678
-5.55133
-5.61546
-5.67902
-5.7416
-5.80264
-5.86188
-5.91926
-5.97475
-6.0283
-6.0798
-6.12912
-6.17603
-6.22021
-6.26116
-5.3929
-5.4106
-5.45155
-5.50617
-5.56531
-5.62542
-5.68565
-5.74539
-5.80404
-5.86119
-5.91664
-5.97027
-6.02196
-6.07158
-6.11896
-6.16391
-6.20617
-6.24543
-5.42885
-5.4441
-5.47906
-5.5269
-5.58046
-5.63618
-5.69274
-5.74933
-5.80524
-5.85996
-5.91318
-5.96468
-6.01429
-6.06183
-6.10716
-6.15011
-6.19048
-6.2281
-5.46272
-5.47578
-5.50566
-5.54747
-5.59563
-5.64686
-5.69959
-5.75282
-5.80576
-5.85782
-5.90858
-5.95775
-6.00512
-6.05049
-6.09373
-6.13469
-6.17325
-6.20933
-5.49136
-5.50265
-5.52851
-5.56536
-5.60875
-5.6558
-5.70484
-5.75477
-5.80473
-5.85407
-5.9023
-5.9491
-5.9942
-6.03743
-6.07863
-6.11773
-6.15461
-6.18926
-5.5101
-5.52015
-5.54326
-5.5766
-5.61645
-5.66022
-5.70625
-5.75338
-5.80074
-5.84765
-5.8936
-5.93822
-5.98127
-6.02256
-6.06197
-6.09942
-6.13484
-6.16827
-5.51159
-5.52112
-5.54312
-5.57505
-5.61341
-5.65564
-5.7001
-5.74564
-5.7914
-5.83671
-5.88108
-5.92416
-5.96571
-6.00556
-6.04361
-6.07982
-6.11413
-6.1466
-5.48974
-5.49981
-5.52312
-5.55683
-5.59691
-5.64044
-5.68574
-5.73177
-5.77776
-5.82307
-5.86726
-5.91001
-5.95112
-5.99047
-6.02798
-6.06361
-6.09735
-6.12924
-5.45799
-5.46899
-5.49491
-5.53238
-5.57606
-5.62237
-5.66974
-5.71737
-5.76457
-5.81075
-5.85552
-5.89864
-5.93996
-5.9794
-6.01692
-6.05253
-6.08622
-6.11807
-5.41831
-5.43027
-5.4602
-5.50374
-5.55274
-5.60276
-5.65287
-5.70275
-5.75176
-5.79931
-5.84509
-5.88894
-5.93076
-5.97052
-6.0082
-6.04383
-6.07742
-6.10904
-5.3737
-5.38557
-5.42098
-5.47347
-5.52931
-5.58349
-5.63664
-5.68902
-5.74
-5.78906
-5.83603
-5.88087
-5.92351
-5.96395
-6.00218
-6.03825
-6.0722
-6.10417
-5.32689
-5.33624
-5.37936
-5.4434
-5.50626
-5.56468
-5.62154
-5.67698
-5.73005
-5.78045
-5.8283
-5.87371
-5.91671
-5.95735
-5.99564
-6.03162
-6.06527
-6.09655
-5.27887
-5.28141
-5.34096
-5.41945
-5.48559
-5.54553
-5.60562
-5.66463
-5.72074
-5.7737
-5.82376
-5.87105
-5.91564
-5.95758
-5.99693
-6.03375
-6.06807
-6.10011
-5.22949
-5.20314
-5.30187
-5.40788
-5.47701
-5.53468
-5.593
-5.65018
-5.70449
-5.75609
-5.80534
-5.85229
-5.89691
-5.93917
-5.97904
-6.01646
-6.05118
-6.08246
-5.21901
-5.08156
-5.22176
-5.3719
-5.46728
-5.54481
-5.61672
-5.68139
-5.73915
-5.79191
-5.84095
-5.88685
-5.92993
-5.97044
-6.00855
-6.04433
-6.07768
-6.1084
-5.3649
-5.06404
-5.13149
-5.2205
-5.29676
-5.38291
-5.47078
-5.55177
-5.62509
-5.69224
-5.75421
-5.81149
-5.8645
-5.91366
-5.95937
-6.00192
-6.0413
-6.07613
-5.39794
-5.62113
-5.73959
-5.68944
-5.65296
-5.66236
-5.6922
-5.72775
-5.76586
-5.80585
-5.8467
-5.8874
-5.92732
-5.96609
-6.0036
-6.03989
-6.07518
-6.10985
-1.97309
-4.0962
-4.93185
-5.16416
-5.29046
-5.40733
-5.50821
-5.59168
-5.66334
-5.72748
-5.78605
-5.83994
-5.8898
-5.93619
-5.97963
-6.0207
-6.06036
-6.10164
-6.92425
-6.9244
-6.92509
-6.92607
-6.92711
-6.92818
-6.92935
-6.93079
-6.93261
-6.93482
-6.93747
-6.94062
-6.94431
-6.94861
-6.95353
-6.95912
-6.96538
-6.97233
-6.97998
-6.98833
-6.99737
-7.0071
-7.0175
-7.02858
-7.0403
-7.05267
-7.06567
-7.07929
-7.0935
-7.10832
-7.12372
-7.1397
-7.15625
-7.17337
-7.19103
-7.20924
-7.22798
-7.24726
-7.26709
-7.28749
-7.30846
-7.32995
-7.3519
-7.37427
-7.39705
-7.42023
-7.4438
-7.46774
-7.49202
-7.51662
-7.5415
-7.56663
-7.59196
-7.61745
-7.64305
-7.6687
-7.69433
-7.71988
-7.74528
-7.77044
-7.79528
-7.81972
-7.84365
-7.86696
-7.88956
-7.91133
-7.93214
-7.95186
-7.97035
-7.98748
-8.0031
-8.01704
-8.02914
-8.03923
-8.04713
-8.05265
-8.0556
-8.05577
-8.05294
-8.0469
-8.03742
-8.02426
-8.00717
-7.98589
-7.96017
-7.92973
-7.8943
-7.8536
-7.80735
-7.75526
-7.69705
-7.63242
-7.56109
-7.48277
-7.3972
-7.30414
-7.20338
-7.09472
-6.97795
-6.85284
-6.71912
-6.57661
-6.42518
-6.26476
-6.09531
-5.9168
-5.72923
-5.5326
-5.32696
-5.11237
-4.88891
-4.6567
-4.41587
-4.1666
-3.90908
-3.64356
-3.3703
-3.08959
-2.80177
-2.50722
-2.20632
-1.89951
-1.58726
-1.27004
-0.948388
-0.622834
-0.29395
0.0376746
0.371434
0.706712
1.04288
1.37931
1.71537
2.05041
2.38382
2.71498
3.04329
3.36818
3.68908
4.00548
4.31687
4.62279
4.92282
5.21656
5.50368
5.78387
6.05688
6.32248
6.58052
6.83085
7.07341
7.30815
7.53506
7.75419
7.9656
8.16942
8.36575
8.55483
8.73682
8.91168
9.08002
9.24231
9.39824
9.54775
9.69112
9.82873
9.96096
10.0882
10.2107
10.3288
10.4427
10.5528
10.6593
10.7624
10.8625
10.9602
11.0563
11.1524
11.2543
11.3624
-6.92234
-6.92284
-6.92363
-6.92446
-6.92516
-6.92571
-6.9263
-6.92713
-6.92836
-6.93005
-6.93224
-6.93497
-6.93828
-6.94221
-6.94678
-6.95203
-6.95796
-6.96459
-6.97192
-6.97995
-6.98867
-6.99807
-7.00815
-7.0189
-7.03029
-7.04233
-7.05498
-7.06825
-7.08212
-7.09658
-7.11163
-7.12724
-7.14342
-7.16017
-7.17747
-7.19531
-7.21368
-7.23259
-7.25204
-7.27202
-7.29253
-7.31355
-7.33505
-7.35699
-7.37935
-7.40213
-7.4253
-7.44884
-7.47273
-7.49695
-7.52145
-7.54621
-7.57118
-7.59631
-7.62156
-7.64687
-7.67217
-7.69741
-7.7225
-7.74738
-7.77196
-7.79614
-7.81984
-7.84295
-7.86537
-7.88697
-7.90765
-7.92727
-7.94569
-7.96278
-7.97839
-7.99237
-8.00454
-8.01475
-8.02281
-8.02855
-8.03176
-8.03224
-8.0298
-8.0242
-8.01522
-8.00263
-7.98618
-7.96563
-7.9407
-7.91114
-7.87668
-7.83702
-7.7919
-7.74104
-7.68413
-7.62091
-7.55107
-7.47433
-7.39041
-7.2991
-7.20019
-7.09348
-6.97874
-6.85571
-6.7241
-6.58371
-6.43442
-6.2762
-6.10898
-5.93275
-5.74749
-5.5532
-5.34994
-5.13773
-4.91668
-4.68688
-4.44847
-4.20162
-3.9465
-3.68336
-3.41245
-3.13406
-2.8485
-2.55615
-2.2574
-1.95265
-1.64237
-1.32704
-1.00716
-0.683266
-0.355917
-0.0256935
0.306805
0.640969
0.976177
1.3118
1.64722
1.98179
2.3149
2.64592
2.97427
3.29936
3.62064
3.93756
4.24963
4.55638
4.85738
5.15222
5.44057
5.7221
5.99655
6.26368
6.52333
6.77533
7.01962
7.25613
7.48484
7.7058
7.91904
8.12472
8.32288
8.51381
8.6977
8.87444
9.0444
9.20794
9.36496
9.51553
9.65992
9.79852
9.9317
10.0598
10.1831
10.302
10.4167
10.5274
10.6345
10.7383
10.8392
10.9378
11.0353
11.133
11.2388
11.3426
-6.91746
-6.9188
-6.92063
-6.92191
-6.92254
-6.92291
-6.92333
-6.92401
-6.92511
-6.92668
-6.92877
-6.93142
-6.93466
-6.93851
-6.94299
-6.94812
-6.95391
-6.96037
-6.9675
-6.97529
-6.98375
-6.99287
-7.00263
-7.01303
-7.02406
-7.03571
-7.04796
-7.06081
-7.07424
-7.08825
-7.10283
-7.11797
-7.13367
-7.14992
-7.16671
-7.18405
-7.20191
-7.22031
-7.23924
-7.25868
-7.27864
-7.29909
-7.32001
-7.34139
-7.36321
-7.38545
-7.4081
-7.43112
-7.4545
-7.47821
-7.50221
-7.52647
-7.55095
-7.5756
-7.60038
-7.62523
-7.65008
-7.67488
-7.69956
-7.72403
-7.74822
-7.77203
-7.79539
-7.81817
-7.84029
-7.86162
-7.88205
-7.90145
-7.9197
-7.93665
-7.95215
-7.96607
-7.97823
-7.98848
-7.99663
-8.00251
-8.00593
-8.00669
-8.00459
-7.9994
-7.99092
-7.97891
-7.96312
-7.94332
-7.91924
-7.89063
-7.85721
-7.81871
-7.77485
-7.72535
-7.66991
-7.60827
-7.54012
-7.46517
-7.38315
-7.29384
-7.19705
-7.09257
-6.98015
-6.8595
-6.73029
-6.59232
-6.44554
-6.28986
-6.12525
-5.95168
-5.76912
-5.5776
-5.37712
-5.16775
-4.94955
-4.72263
-4.48711
-4.24315
-3.99094
-3.73068
-3.46264
-3.18708
-2.90433
-2.61473
-2.31866
-2.01653
-1.70879
-1.39591
-1.07837
-0.756713
-0.431474
-0.103226
0.227439
0.559918
0.8936
1.22787
1.5621
1.89567
2.22795
2.55833
2.88623
3.21106
3.53227
3.8493
4.16166
4.46889
4.77054
5.06619
5.35551
5.63816
5.91385
6.18237
6.44352
6.69711
6.94309
7.18138
7.41193
7.63481
7.85001
8.0577
8.25796
8.45089
8.63668
8.81529
8.98706
9.1524
9.31128
9.46372
9.60995
9.75033
9.88521
10.0149
10.1397
10.2599
10.3758
10.4878
10.5961
10.701
10.8032
10.9032
11.0024
11.1016
11.2106
11.3034
-6.91097
-6.9132
-6.91642
-6.91867
-6.91996
-6.92085
-6.92168
-6.92269
-6.92402
-6.92577
-6.928
-6.93077
-6.9341
-6.93801
-6.94252
-6.94765
-6.95341
-6.95979
-6.96681
-6.97446
-6.98273
-6.99163
-7.00115
-7.01128
-7.02201
-7.03334
-7.04525
-7.05774
-7.0708
-7.08443
-7.09861
-7.11334
-7.12863
-7.14446
-7.16082
-7.17772
-7.19515
-7.21311
-7.23159
-7.25058
-7.27008
-7.29007
-7.31054
-7.33148
-7.35286
-7.37467
-7.3969
-7.41952
-7.4425
-7.46582
-7.48944
-7.51333
-7.53745
-7.56176
-7.5862
-7.61071
-7.63526
-7.65975
-7.68414
-7.70834
-7.73227
-7.75585
-7.77898
-7.80156
-7.8235
-7.84467
-7.86497
-7.88427
-7.90244
-7.91934
-7.93484
-7.94879
-7.96102
-7.97137
-7.97967
-7.98576
-7.98943
-7.9905
-7.98876
-7.984
-7.97601
-7.96456
-7.94941
-7.93031
-7.90703
-7.87928
-7.84681
-7.80934
-7.76659
-7.71829
-7.66413
-7.60385
-7.53714
-7.46371
-7.38329
-7.29565
-7.20061
-7.09796
-6.9874
-6.8686
-6.74123
-6.60515
-6.46028
-6.30657
-6.14397
-5.97245
-5.79197
-5.60256
-5.40422
-5.19701
-4.98099
-4.75627
-4.52295
-4.28119
-4.03117
-3.7731
-3.50722
-3.23381
-2.95316
-2.66562
-2.37158
-2.07142
-1.76558
-1.45454
-1.13876
-0.818778
-0.495122
-0.16836
0.160923
0.492129
0.824653
1.15789
1.49122
1.82401
2.15565
2.48553
2.81307
3.13768
3.45881
3.7759
4.08847
4.39604
4.69816
4.99441
5.28446
5.56798
5.84461
6.1142
6.37655
6.63139
6.87874
7.1185
7.35057
7.57511
7.79202
8.00141
8.20336
8.39797
8.58541
8.76571
8.93913
9.10606
9.26654
9.4206
9.56845
9.71038
9.84672
9.97777
10.1038
10.2252
10.3422
10.4552
10.5644
10.6702
10.7733
10.8741
10.974
11.073
11.1811
11.2614
-6.9048
-6.90777
-6.91234
-6.91579
-6.91799
-6.91961
-6.92107
-6.9226
-6.92437
-6.92649
-6.92906
-6.93211
-6.93568
-6.93979
-6.94447
-6.94972
-6.95555
-6.96197
-6.96898
-6.97658
-6.98476
-6.99354
-7.0029
-7.01284
-7.02335
-7.03443
-7.04608
-7.05828
-7.07104
-7.08435
-7.09821
-7.11261
-7.12755
-7.14303
-7.15904
-7.17559
-7.19266
-7.21026
-7.22838
-7.24702
-7.26616
-7.2858
-7.30593
-7.32653
-7.34759
-7.36909
-7.39102
-7.41334
-7.43604
-7.45909
-7.48246
-7.5061
-7.52998
-7.55406
-7.57829
-7.60261
-7.62696
-7.65129
-7.67551
-7.69957
-7.72337
-7.74683
-7.76986
-7.79236
-7.81423
-7.83536
-7.85563
-7.87493
-7.89313
-7.91008
-7.92566
-7.9397
-7.95207
-7.9626
-7.97111
-7.97744
-7.98141
-7.98281
-7.98145
-7.97713
-7.96963
-7.95872
-7.94416
-7.92573
-7.90316
-7.87619
-7.84456
-7.80799
-7.76621
-7.71892
-7.66585
-7.60669
-7.54116
-7.46895
-7.38981
-7.3035
-7.20984
-7.10859
-6.99942
-6.88192
-6.75584
-6.62108
-6.47757
-6.32525
-6.16406
-5.99397
-5.81496
-5.62702
-5.43017
-5.22446
-5.00994
-4.78671
-4.55489
-4.31461
-4.06607
-3.80944
-3.54499
-3.27296
-2.99367
-2.70746
-2.41468
-2.11575
-1.81109
-1.50116
-1.18644
-0.867442
-0.544702
-0.218781
0.109737
0.440253
0.772169
1.10489
1.43779
1.77024
2.10163
2.43134
2.75881
3.08345
3.40469
3.72198
4.03483
4.3428
4.64538
4.94214
5.23282
5.51707
5.79443
6.06486
6.32819
6.58398
6.8324
7.07338
7.30666
7.53238
7.7505
7.96108
8.16421
8.35999
8.54857
8.73
8.90454
9.07248
9.23393
9.38898
9.53781
9.68069
9.81794
9.94983
10.0767
10.1988
10.3164
10.4299
10.5397
10.646
10.7494
10.8504
10.9501
11.0476
11.1531
11.222
-6.9005
-6.90403
-6.90962
-6.91417
-6.9173
-6.91971
-6.92185
-6.92397
-6.92625
-6.92883
-6.93178
-6.93518
-6.93905
-6.94342
-6.94831
-6.95372
-6.95968
-6.96618
-6.97322
-6.98082
-6.98897
-6.99766
-7.00691
-7.01671
-7.02705
-7.03794
-7.04937
-7.06134
-7.07386
-7.08691
-7.10049
-7.11462
-7.12927
-7.14447
-7.16019
-7.17645
-7.19324
-7.21055
-7.22839
-7.24675
-7.26562
-7.28499
-7.30486
-7.32522
-7.34605
-7.36732
-7.38904
-7.41116
-7.43368
-7.45655
-7.47976
-7.50325
-7.527
-7.55095
-7.57507
-7.59929
-7.62355
-7.6478
-7.67196
-7.69596
-7.71973
-7.74316
-7.76618
-7.78869
-7.81058
-7.83175
-7.85208
-7.87145
-7.88974
-7.90681
-7.92252
-7.93673
-7.94929
-7.96003
-7.96879
-7.9754
-7.97968
-7.98143
-7.98047
-7.97658
-7.96955
-7.95917
-7.94518
-7.92736
-7.90546
-7.8792
-7.84833
-7.81257
-7.77164
-7.72524
-7.6731
-7.6149
-7.55035
-7.47915
-7.40105
-7.31583
-7.22327
-7.12311
-7.01494
-6.89834
-6.77314
-6.63931
-6.49676
-6.34542
-6.18524
-6.01617
-5.83818
-5.65128
-5.45547
-5.2508
-5.03732
-4.81513
-4.58432
-4.34505
-4.09749
-3.84183
-3.5783
-3.30716
-3.02873
-2.74333
-2.45133
-2.15312
-1.84915
-1.53985
-1.22571
-0.907234
-0.584949
-0.259424
0.0687557
0.398989
0.730683
1.06325
1.39607
1.72851
2.05993
2.38972
2.71735
3.04223
3.36375
3.68133
3.99456
4.30301
4.60608
4.90332
5.1946
5.47957
5.75757
6.02875
6.29297
6.54967
6.79897
7.04079
7.27495
7.5015
7.72044
7.93183
8.13574
8.33228
8.52156
8.70369
8.87887
9.04737
9.20932
9.36487
9.5142
9.65757
9.79527
9.92758
10.0548
10.1773
10.2952
10.409
10.5189
10.6253
10.7287
10.8294
10.9283
11.0239
11.1266
11.1852
-6.89908
-6.9029
-6.90909
-6.91444
-6.91835
-6.92146
-6.92422
-6.92689
-6.92967
-6.93268
-6.93602
-6.93975
-6.94391
-6.94853
-6.95362
-6.9592
-6.96528
-6.97187
-6.97897
-6.98658
-6.9947
-7.00335
-7.01251
-7.0222
-7.03241
-7.04314
-7.0544
-7.06618
-7.0785
-7.09133
-7.1047
-7.1186
-7.13303
-7.14799
-7.16349
-7.17952
-7.19609
-7.21319
-7.23081
-7.24897
-7.26764
-7.28683
-7.30653
-7.32672
-7.34739
-7.36853
-7.39011
-7.41212
-7.43454
-7.45732
-7.48045
-7.50388
-7.52757
-7.55149
-7.57557
-7.59977
-7.62403
-7.64829
-7.67247
-7.6965
-7.7203
-7.74379
-7.76687
-7.78946
-7.81144
-7.83271
-7.85315
-7.87265
-7.89108
-7.90831
-7.9242
-7.93861
-7.95139
-7.96237
-7.97141
-7.97831
-7.98291
-7.98502
-7.98445
-7.98098
-7.97442
-7.96453
-7.95108
-7.93384
-7.91254
-7.88694
-7.85676
-7.82172
-7.78153
-7.73592
-7.68457
-7.62719
-7.56346
-7.49309
-7.41584
-7.3315
-7.23982
-7.14046
-7.03293
-6.91689
-6.79227
-6.65906
-6.51715
-6.36649
-6.20699
-6.03862
-5.86134
-5.67515
-5.48005
-5.27609
-5.06331
-4.8418
-4.61167
-4.37306
-4.12612
-3.87107
-3.60811
-3.33752
-3.05958
-2.77465
-2.48308
-2.18526
-1.88163
-1.57264
-1.25876
-0.940484
-0.618347
-0.292921
0.0352034
0.365417
0.697131
1.02978
1.36274
1.69537
2.02699
2.35701
2.68494
3.01019
3.33209
3.65001
3.96368
4.27268
4.57629
4.874
5.1659
5.45161
5.73037
6.00226
6.26712
6.52453
6.7745
7.01694
7.25173
7.47889
7.69841
7.91034
8.11476
8.31177
8.50148
8.68401
8.85955
9.02832
9.19052
9.34628
9.49582
9.63939
9.77727
9.90974
10.0371
10.1596
10.2776
10.3914
10.5012
10.6075
10.7105
10.8106
10.9083
11.0018
11.1018
11.1512
-6.9006
-6.90448
-6.9109
-6.91674
-6.92124
-6.9249
-6.92817
-6.93131
-6.93449
-6.93787
-6.94153
-6.94554
-6.94995
-6.95477
-6.96003
-6.96575
-6.97193
-6.97859
-6.98572
-6.99334
-7.00144
-7.01004
-7.01914
-7.02873
-7.03883
-7.04943
-7.06055
-7.07218
-7.08433
-7.097
-7.1102
-7.12392
-7.13818
-7.15297
-7.16829
-7.18416
-7.20056
-7.21751
-7.23499
-7.25301
-7.27156
-7.29064
-7.31023
-7.33033
-7.35092
-7.372
-7.39353
-7.4155
-7.43789
-7.46066
-7.48378
-7.50722
-7.53094
-7.55489
-7.57901
-7.60327
-7.6276
-7.65193
-7.67619
-7.70031
-7.72422
-7.74782
-7.77102
-7.79373
-7.81585
-7.83726
-7.85787
-7.87753
-7.89614
-7.91356
-7.92966
-7.94429
-7.9573
-7.96854
-7.97785
-7.98505
-7.98997
-7.99243
-7.99223
-7.98916
-7.98303
-7.9736
-7.96065
-7.94394
-7.9232
-7.89819
-7.86862
-7.83422
-7.7947
-7.74976
-7.6991
-7.6424
-7.57934
-7.50965
-7.4331
-7.34947
-7.25845
-7.1596
-7.05239
-6.93661
-6.81233
-6.67949
-6.53798
-6.38774
-6.22867
-6.06075
-5.88392
-5.69818
-5.50353
-5.30001
-5.08766
-4.86657
-4.63684
-4.39861
-4.15204
-3.89732
-3.63466
-3.36433
-3.08663
-2.80189
-2.51047
-2.21278
-1.90925
-1.60032
-1.28646
-0.968149
-0.64593
-0.320386
0.00788321
0.338254
0.670149
1.00304
1.33631
1.66925
2.00118
2.33149
2.6598
2.98554
3.30789
3.62619
3.94032
4.24993
4.55416
4.85253
5.14502
5.43124
5.71061
5.98307
6.24843
6.50637
6.75684
6.99974
7.23497
7.46253
7.68243
7.89471
8.09945
8.29672
8.48666
8.66939
8.84508
9.01396
9.17621
9.33201
9.48158
9.62516
9.76303
9.89547
10.0228
10.1452
10.263
10.3766
10.4862
10.5921
10.6945
10.7937
10.8901
10.9813
11.0786
11.1199
-6.90479
-6.90856
-6.91492
-6.92097
-6.92583
-6.92987
-6.93352
-6.937
-6.9405
-6.94416
-6.94806
-6.95228
-6.95685
-6.96182
-6.96719
-6.97299
-6.97923
-6.98592
-6.99306
-7.00067
-7.00874
-7.01728
-7.02631
-7.03581
-7.04582
-7.05631
-7.06731
-7.07882
-7.09084
-7.10338
-7.11645
-7.13004
-7.14417
-7.15884
-7.17405
-7.18981
-7.20611
-7.22297
-7.24037
-7.25832
-7.27681
-7.29584
-7.3154
-7.33547
-7.35606
-7.37713
-7.39868
-7.42068
-7.44311
-7.46593
-7.48912
-7.51263
-7.53643
-7.56047
-7.58471
-7.60907
-7.63352
-7.65798
-7.68238
-7.70664
-7.73069
-7.75444
-7.7778
-7.80068
-7.82296
-7.84455
-7.86533
-7.88518
-7.90398
-7.9216
-7.93791
-7.95275
-7.966
-7.97748
-7.98705
-7.99453
-7.99974
-8.00252
-8.00266
-7.99996
-7.99422
-7.98521
-7.97271
-7.95646
-7.93622
-7.91173
-7.8827
-7.84886
-7.80991
-7.76556
-7.71547
-7.65932
-7.5968
-7.52767
-7.4517
-7.36862
-7.27804
-7.17936
-7.07216
-6.95646
-6.83232
-6.69967
-6.55838
-6.40835
-6.24953
-6.08185
-5.90528
-5.71979
-5.52539
-5.3221
-5.10998
-4.8891
-4.65957
-4.42151
-4.1751
-3.9205
-3.65792
-3.38764
-3.10996
-2.82521
-2.53375
-2.23598
-1.93235
-1.62331
-1.30929
-0.990764
-0.668288
-0.342466
-0.0139111
0.316727
0.648904
0.982171
1.31587
1.64923
1.98155
2.3122
2.64097
2.96727
3.29016
3.60907
3.92376
4.23382
4.53855
4.83749
5.13047
5.4171
5.69694
5.96983
6.23555
6.49387
6.74467
6.98787
7.22338
7.45118
7.67129
7.88374
8.0886
8.28597
8.47596
8.65871
8.83439
9.00321
9.16537
9.32106
9.47051
9.61395
9.75167
9.88393
10.011
10.1332
10.2508
10.3641
10.4732
10.5786
10.6803
10.7785
10.8733
10.9623
11.0569
11.0911
-6.91121
-6.91475
-6.92084
-6.92686
-6.93187
-6.93613
-6.94
-6.9437
-6.94741
-6.95124
-6.95529
-6.95963
-6.9643
-6.96933
-6.97475
-6.98058
-6.98682
-6.9935
-7.00061
-7.00817
-7.01619
-7.02467
-7.03361
-7.04304
-7.05295
-7.06335
-7.07425
-7.08566
-7.09759
-7.11003
-7.12301
-7.13651
-7.15056
-7.16516
-7.18031
-7.19601
-7.21227
-7.22909
-7.24647
-7.26441
-7.2829
-7.30195
-7.32153
-7.34165
-7.36228
-7.38342
-7.40505
-7.42713
-7.44965
-7.47258
-7.49589
-7.51953
-7.54346
-7.56764
-7.59203
-7.61655
-7.64115
-7.66577
-7.69034
-7.71477
-7.73899
-7.76292
-7.78645
-7.80949
-7.83195
-7.85372
-7.87467
-7.8947
-7.91368
-7.93148
-7.94797
-7.96301
-7.97646
-7.98815
-7.99794
-8.00565
-8.01112
-8.01416
-8.01459
-8.0122
-8.00679
-7.99813
-7.986
-7.97016
-7.95035
-7.92629
-7.89773
-7.86437
-7.82591
-7.78203
-7.73239
-7.67667
-7.6146
-7.54594
-7.47043
-7.38773
-7.29727
-7.19841
-7.09101
-6.97526
-6.85115
-6.71854
-6.57732
-6.42738
-6.26866
-6.10108
-5.92461
-5.73923
-5.54493
-5.34173
-5.12969
-4.90887
-4.67937
-4.44134
-4.19493
-3.94031
-3.67766
-3.40727
-3.12945
-2.84455
-2.5529
-2.25493
-1.95108
-1.64181
-1.32752
-1.00864
-0.685778
-0.359568
-0.0306283
0.300356
0.632888
0.966614
1.30083
1.63471
1.96757
2.29883
2.62811
2.95484
3.27823
3.59771
3.91291
4.22338
4.52854
4.82794
5.1213
5.40826
5.68845
5.96163
6.22761
6.48615
6.73715
6.9805
7.21612
7.44401
7.66415
7.8766
8.08143
8.27872
8.4686
8.65122
8.82674
8.99536
9.15729
9.31274
9.46192
9.6051
9.74254
9.8745
10.0013
10.1231
10.2403
10.3531
10.4618
10.5665
10.6673
10.7643
10.8576
10.9444
11.0365
11.0644
-6.91936
-6.9226
-6.92825
-6.93405
-6.93903
-6.94334
-6.9473
-6.9511
-6.95489
-6.95879
-6.9629
-6.96726
-6.97195
-6.97697
-6.98237
-6.98816
-6.99436
-7.00098
-7.00802
-7.01551
-7.02345
-7.03184
-7.04071
-7.05005
-7.05987
-7.07019
-7.08102
-7.09235
-7.10421
-7.11659
-7.12951
-7.14297
-7.15698
-7.17155
-7.18669
-7.20239
-7.21865
-7.23549
-7.25291
-7.27089
-7.28944
-7.30855
-7.32822
-7.34842
-7.36916
-7.39041
-7.41216
-7.43438
-7.45704
-7.48012
-7.50358
-7.52738
-7.55148
-7.57584
-7.60039
-7.62509
-7.64987
-7.67466
-7.6994
-7.724
-7.74839
-7.77248
-7.79617
-7.81938
-7.84199
-7.86389
-7.88499
-7.90516
-7.92428
-7.94221
-7.95884
-7.97402
-7.9876
-7.99944
-8.00938
-8.01725
-8.0229
-8.02613
-8.02677
-8.02461
-8.01945
-8.01107
-7.99924
-7.98371
-7.96423
-7.94053
-7.91235
-7.87937
-7.84129
-7.79777
-7.74847
-7.69309
-7.6314
-7.56313
-7.48795
-7.40535
-7.31458
-7.21528
-7.10762
-6.99175
-6.86757
-6.73492
-6.59367
-6.44371
-6.28499
-6.11741
-5.94095
-5.75558
-5.56128
-5.35807
-5.14601
-4.92515
-4.6956
-4.4575
-4.21101
-3.95627
-3.69345
-3.42286
-3.14481
-2.85966
-2.56775
-2.26949
-1.96536
-1.6558
-1.34118
-1.0219
-0.698588
-0.371921
-0.0425011
0.289032
0.622132
0.956339
1.29101
1.6254
1.95882
2.29067
2.62047
2.94764
3.27149
3.59146
3.90711
4.21794
4.52346
4.82321
5.11686
5.40406
5.68447
5.95783
6.22394
6.48258
6.73363
6.97699
7.21258
7.44039
7.66043
7.87273
8.07737
8.27444
8.46407
8.6464
8.82162
8.98991
9.15148
9.30657
9.45538
9.59818
9.73523
9.86679
9.99315
10.1146
10.2313
10.3436
10.4516
10.5555
10.6554
10.7512
10.8428
10.9275
11.0171
11.0398
-6.92874
-6.93162
-6.93676
-6.94218
-6.94696
-6.95119
-6.9551
-6.95886
-6.96263
-6.9665
-6.97056
-6.97487
-6.97948
-6.98442
-6.98973
-6.99542
-7.00152
-7.00803
-7.01498
-7.02236
-7.0302
-7.0385
-7.04727
-7.05653
-7.06627
-7.07653
-7.08729
-7.09857
-7.11039
-7.12274
-7.13564
-7.1491
-7.16312
-7.17771
-7.19287
-7.20861
-7.22494
-7.24184
-7.25934
-7.27741
-7.29606
-7.31529
-7.33507
-7.35542
-7.37629
-7.3977
-7.4196
-7.44198
-7.46481
-7.48806
-7.51169
-7.53567
-7.55994
-7.58447
-7.60919
-7.63406
-7.659
-7.68395
-7.70884
-7.73359
-7.75811
-7.78232
-7.80612
-7.82942
-7.85213
-7.87412
-7.89529
-7.91552
-7.93469
-7.95268
-7.96936
-7.98458
-7.99821
-8.0101
-8.02009
-8.02803
-8.03376
-8.03708
-8.03783
-8.0358
-8.03079
-8.02258
-8.01093
-7.99561
-7.97637
-7.95294
-7.92503
-7.89233
-7.85451
-7.81123
-7.76218
-7.7071
-7.64573
-7.57774
-7.50264
-7.41967
-7.32823
-7.22842
-7.12053
-7.00451
-6.88023
-6.7475
-6.60615
-6.45612
-6.29733
-6.12972
-5.95321
-5.76779
-5.57344
-5.37018
-5.15804
-4.9371
-4.70746
-4.46926
-4.22267
-3.96782
-3.70483
-3.43401
-3.15572
-2.87029
-2.57808
-2.27949
-1.97496
-1.66497
-1.34993
-1.03027
-0.706547
-0.379419
-0.0494945
0.282601
0.616284
0.951013
1.28616
1.62104
1.95498
2.28736
2.61764
2.94523
3.26949
3.58987
3.90588
4.21702
4.5228
4.8228
5.11664
5.40398
5.68449
5.95791
6.22402
6.48262
6.73359
6.97682
7.21224
7.43984
7.65963
7.87164
8.07595
8.27267
8.46191
8.64384
8.81863
8.98648
9.1476
9.30221
9.45055
9.59288
9.72945
9.86053
9.98639
10.1073
10.2234
10.3351
10.4424
10.5456
10.6445
10.7389
10.8289
10.9116
10.9988
11.0171
-6.9389
-6.94141
-6.94596
-6.95091
-6.95537
-6.95937
-6.9631
-6.96671
-6.97033
-6.97405
-6.97796
-6.98212
-6.98658
-6.99137
-6.99652
-7.00206
-7.00801
-7.01437
-7.02118
-7.02844
-7.03616
-7.04436
-7.05304
-7.06221
-7.0719
-7.0821
-7.09282
-7.10408
-7.11588
-7.12824
-7.14116
-7.15465
-7.16871
-7.18336
-7.19859
-7.21442
-7.23084
-7.24785
-7.26546
-7.28366
-7.30245
-7.32181
-7.34175
-7.36225
-7.38329
-7.40485
-7.42692
-7.44946
-7.47246
-7.49587
-7.51966
-7.54379
-7.56821
-7.59288
-7.61774
-7.64272
-7.66777
-7.69282
-7.71779
-7.74261
-7.76718
-7.79142
-7.81524
-7.83855
-7.86124
-7.8832
-7.90433
-7.92452
-7.94363
-7.96155
-7.97814
-7.99329
-8.00683
-8.01864
-8.02857
-8.03645
-8.04212
-8.04541
-8.04614
-8.04413
-8.03915
-8.03098
-8.0194
-8.00419
-7.98508
-7.9618
-7.93404
-7.90149
-7.8638
-7.82068
-7.77186
-7.71706
-7.65593
-7.58797
-7.51244
-7.42858
-7.3364
-7.23627
-7.1282
-7.01205
-6.88768
-6.7549
-6.61353
-6.46344
-6.30461
-6.13696
-5.96042
-5.77496
-5.58057
-5.37726
-5.16506
-4.94404
-4.7143
-4.47597
-4.22922
-3.97421
-3.7111
-3.44011
-3.1616
-2.87591
-2.58341
-2.28448
-1.97957
-1.66914
-1.35365
-1.03357
-0.709434
-0.381863
-0.0514665
0.281136
0.615341
0.950563
1.28617
1.6215
1.95589
2.28872
2.6194
2.94735
3.27195
3.59263
3.9089
4.22025
4.5262
4.82632
5.12024
5.4076
5.68808
5.96142
6.22741
6.48584
6.73659
6.97956
7.21467
7.44193
7.66133
7.87292
8.07679
8.27303
8.46177
8.64319
8.81745
8.98475
9.14532
9.29938
9.44717
9.58894
9.72496
9.85549
9.98079
10.1011
10.2167
10.3277
10.4343
10.5365
10.6343
10.7275
10.8159
10.8967
10.9816
10.9963
-6.94946
-6.95161
-6.95557
-6.95997
-6.964
-6.96764
-6.97105
-6.97438
-6.97772
-6.98119
-6.98484
-6.98875
-6.99297
-6.99753
-7.00246
-7.00779
-7.01354
-7.01973
-7.02638
-7.03349
-7.04109
-7.04918
-7.05777
-7.06688
-7.07652
-7.08668
-7.09739
-7.10865
-7.12048
-7.13287
-7.14584
-7.15939
-7.17353
-7.18827
-7.2036
-7.21954
-7.23608
-7.25322
-7.27097
-7.28931
-7.30824
-7.32775
-7.34784
-7.36848
-7.38967
-7.41137
-7.43357
-7.45625
-7.47936
-7.50288
-7.52677
-7.55098
-7.57548
-7.6002
-7.62509
-7.65009
-7.67514
-7.70017
-7.7251
-7.74985
-7.77433
-7.79846
-7.82216
-7.84531
-7.86783
-7.88962
-7.91055
-7.93052
-7.94941
-7.9671
-7.98346
-7.99836
-8.01167
-8.02325
-8.03295
-8.04061
-8.04609
-8.04921
-8.0498
-8.04767
-8.04262
-8.03441
-8.02282
-8.00761
-7.98853
-7.96529
-7.93757
-7.90507
-7.86749
-7.82457
-7.77599
-7.72139
-7.66024
-7.59175
-7.51515
-7.43038
-7.33784
-7.23754
-7.12936
-7.01313
-6.88869
-6.75588
-6.61453
-6.46448
-6.30567
-6.13803
-5.9615
-5.77605
-5.58167
-5.37835
-5.16613
-4.94508
-4.71529
-4.47687
-4.23
-3.97484
-3.71157
-3.44044
-3.16175
-2.87585
-2.5831
-2.28389
-1.97866
-1.66788
-1.35201
-1.03155
-0.707046
-0.379093
-0.0482972
0.284723
0.619355
0.954986
1.29098
1.62667
1.96141
2.29458
2.62557
2.95377
3.27859
3.59946
3.91587
4.2273
4.5333
4.83342
5.12727
5.41452
5.69484
5.96797
6.23369
6.49182
6.74222
6.98478
7.21947
7.44625
7.66514
7.8762
8.0795
8.27515
8.4633
8.64411
8.81775
8.98443
9.14437
9.29781
9.44499
9.58616
9.72158
9.85151
9.97621
10.0959
10.2108
10.3211
10.4269
10.5283
10.6251
10.717
10.8038
10.8828
10.9654
10.9774
-6.96021
-6.96203
-6.96543
-6.96923
-6.97272
-6.97587
-6.97882
-6.9817
-6.98462
-6.98768
-6.99095
-6.9945
-6.99838
-7.00262
-7.00727
-7.01234
-7.01786
-7.02384
-7.03031
-7.03727
-7.04475
-7.05274
-7.06126
-7.07031
-7.07992
-7.09007
-7.10079
-7.11208
-7.12395
-7.1364
-7.14944
-7.16308
-7.17732
-7.19216
-7.2076
-7.22366
-7.24032
-7.25758
-7.27545
-7.29391
-7.31295
-7.33257
-7.35275
-7.37348
-7.39473
-7.4165
-7.43874
-7.46144
-7.48456
-7.50806
-7.53191
-7.55607
-7.58048
-7.60509
-7.62984
-7.65469
-7.67956
-7.70438
-7.72909
-7.7536
-7.77781
-7.80164
-7.82501
-7.84783
-7.87
-7.89141
-7.91196
-7.93154
-7.95003
-7.96732
-7.98328
-7.99778
-8.01069
-8.02189
-8.03122
-8.03854
-8.04369
-8.04652
-8.04684
-8.04447
-8.03923
-8.03089
-8.01919
-8.0039
-7.98476
-7.96147
-7.93374
-7.90132
-7.86392
-7.8212
-7.77277
-7.71803
-7.65613
-7.58636
-7.50879
-7.42369
-7.33105
-7.23073
-7.12255
-7.00634
-6.88191
-6.74912
-6.60782
-6.45785
-6.29914
-6.1316
-5.95517
-5.76982
-5.57552
-5.37229
-5.16015
-4.93915
-4.7094
-4.471
-4.2241
-3.96889
-3.70557
-3.43437
-3.15559
-2.86958
-2.57668
-2.27731
-1.97188
-1.66086
-1.34474
-1.02402
-0.699255
-0.371034
-0.0399599
0.293349
0.62827
0.964175
1.30042
1.63635
1.97131
2.30467
2.63582
2.96414
3.28904
3.60995
3.92635
4.23774
4.54363
4.84359
5.13725
5.42424
5.70426
5.97704
6.24236
6.50005
6.74996
6.99201
7.22614
7.45233
7.67061
7.88103
8.08367
8.27866
8.46613
8.64625
8.8192
8.9852
9.14448
9.29725
9.44378
9.58432
9.71911
9.84843
9.97252
10.0916
10.2059
10.3155
10.4205
10.521
10.6167
10.7074
10.7927
10.8701
10.9505
10.9606
-6.97136
-6.97287
-6.97569
-6.97882
-6.98163
-6.98411
-6.9864
-6.98864
-6.99095
-6.99344
-6.99618
-6.99924
-7.00267
-7.00651
-7.0108
-7.01556
-7.02081
-7.02657
-7.03285
-7.03966
-7.04701
-7.05491
-7.06336
-7.07238
-7.08197
-7.09213
-7.10287
-7.1142
-7.12611
-7.13862
-7.15174
-7.16545
-7.17976
-7.19468
-7.2102
-7.22632
-7.24305
-7.26036
-7.27827
-7.29675
-7.3158
-7.3354
-7.35554
-7.3762
-7.39737
-7.41902
-7.44112
-7.46365
-7.48657
-7.50985
-7.53344
-7.55731
-7.5814
-7.60566
-7.63005
-7.65449
-7.67892
-7.70329
-7.72752
-7.75152
-7.77522
-7.79853
-7.82135
-7.84361
-7.8652
-7.88603
-7.90599
-7.92497
-7.94287
-7.95957
-7.97495
-7.98889
-8.00125
-8.01192
-8.02075
-8.0276
-8.03231
-8.03472
-8.03467
-8.03198
-8.02644
-8.01783
-8.00593
-7.99047
-7.97119
-7.94787
-7.92022
-7.88793
-7.85066
-7.80793
-7.75905
-7.70312
-7.63973
-7.56912
-7.49133
-7.40623
-7.31368
-7.21347
-7.10542
-6.98935
-6.86508
-6.73245
-6.59133
-6.44157
-6.28307
-6.11576
-5.93956
-5.75444
-5.56037
-5.35736
-5.14542
-4.92463