/*--------------------------------*- C++ -*----------------------------------*\
| =========                 |                                                 |
| \\      /  F ield         | OpenFOAM: The Open Source CFD Toolbox           |
|  \\    /   O peration     | Version:  plus                                  |
|   \\  /    A nd           | Website:  www.openfoam.com                      |
|    \\/     M anipulation  |                                                 |
\*---------------------------------------------------------------------------*/
FoamFile
{
    version     2.0;
    format      ascii;
    class       surfaceScalarField;
    location    "200";
    object      phi;
}
// * * * * * * * * * * * * * * * * * * * * * * * * * * * * * * * * * * * * * //

dimensions      [0 3 -1 0 0 0 0];
oriented        oriented;


internalField   nonuniform List<scalar> 
24170
(
3.13271e-06
5.56965e-08
3.05822e-06
7.44851e-08
2.99842e-06
5.98048e-08
2.93879e-06
5.96269e-08
2.8813e-06
5.74883e-08
2.82751e-06
5.37938e-08
2.77761e-06
4.98997e-08
2.7314e-06
4.62143e-08
2.6886e-06
4.27966e-08
2.64896e-06
3.96416e-08
2.61222e-06
3.67337e-08
2.57817e-06
3.4054e-08
2.54659e-06
3.15825e-08
2.51728e-06
2.93058e-08
2.49004e-06
2.72395e-08
2.46447e-06
2.55764e-08
2.43824e-06
2.6222e-08
2.78751e-08
2.41037e-06
3.44251e-06
3.04377e-08
3.43087e-06
8.6118e-08
3.41491e-06
7.57732e-08
3.3992e-06
7.5336e-08
3.38235e-06
7.43403e-08
3.36474e-06
7.1395e-08
3.34674e-06
6.79062e-08
3.32853e-06
6.44173e-08
3.31031e-06
6.10178e-08
3.29223e-06
5.77203e-08
3.27443e-06
5.45346e-08
3.25702e-06
5.14672e-08
3.24008e-06
4.85216e-08
3.22368e-06
4.57075e-08
3.20785e-06
4.30729e-08
3.1926e-06
4.08231e-08
3.17946e-06
3.93573e-08
3.56927e-08
3.17165e-06
3.66036e-06
3.25957e-08
3.66971e-06
7.67674e-08
3.67131e-06
7.41749e-08
3.67295e-06
7.36974e-08
3.67362e-06
7.36684e-08
3.67308e-06
7.19302e-08
3.67162e-06
6.9371e-08
3.66944e-06
6.65909e-08
3.66672e-06
6.37435e-08
3.66357e-06
6.08696e-08
3.66011e-06
5.79988e-08
3.65642e-06
5.51544e-08
3.65259e-06
5.23526e-08
3.64869e-06
4.96094e-08
3.6448e-06
4.69569e-08
3.64118e-06
4.44485e-08
3.63863e-06
4.19023e-08
3.74383e-08
3.63689e-06
3.92529e-06
3.26946e-08
3.93481e-06
6.72429e-08
3.93901e-06
6.99768e-08
3.9425e-06
7.02125e-08
3.94546e-06
7.0702e-08
3.94771e-06
6.96874e-08
3.94941e-06
6.76694e-08
3.95073e-06
6.52658e-08
3.95178e-06
6.2701e-08
3.9526e-06
6.00469e-08
3.95325e-06
5.73459e-08
3.95378e-06
5.4629e-08
3.95421e-06
5.19146e-08
3.95461e-06
4.92131e-08
3.95504e-06
4.65263e-08
3.95568e-06
4.38122e-08
3.95679e-06
4.07933e-08
3.64481e-08
3.95778e-06
4.20938e-06
3.04406e-08
4.21718e-06
5.94439e-08
4.22181e-06
6.53504e-08
4.22552e-06
6.64984e-08
4.22896e-06
6.72635e-08
4.23199e-06
6.66588e-08
4.23466e-06
6.49945e-08
4.23708e-06
6.28472e-08
4.2393e-06
6.04775e-08
4.24137e-06
5.79782e-08
4.24332e-06
5.53998e-08
4.24517e-06
5.27759e-08
4.24696e-06
5.01247e-08
4.24873e-06
4.74491e-08
4.25052e-06
4.47309e-08
4.25244e-06
4.18954e-08
4.25452e-06
3.87144e-08
3.47196e-08
4.25625e-06
4.51198e-06
2.75474e-08
4.51871e-06
5.27117e-08
4.52366e-06
6.04036e-08
4.52771e-06
6.24506e-08
4.53149e-06
6.34763e-08
4.53496e-06
6.31909e-08
4.53812e-06
6.18365e-08
4.54104e-06
5.99275e-08
4.54378e-06
5.7739e-08
4.54637e-06
5.53819e-08
4.54886e-06
5.29151e-08
4.55126e-06
5.03757e-08
4.5536e-06
4.77823e-08
4.55592e-06
4.51344e-08
4.55824e-06
4.24064e-08
4.56061e-06
3.95256e-08
4.56299e-06
3.6337e-08
3.26404e-08
4.56507e-06
4.83558e-06
2.46865e-08
4.84167e-06
4.66191e-08
4.84683e-06
5.52432e-08
4.85119e-06
5.80987e-08
4.85525e-06
5.94147e-08
4.85902e-06
5.94202e-08
4.8625e-06
5.83569e-08
4.86574e-06
5.66805e-08
4.86881e-06
5.46703e-08
4.87174e-06
5.24532e-08
4.87456e-06
5.00973e-08
4.87729e-06
4.76441e-08
4.87996e-06
4.51141e-08
4.88259e-06
4.25076e-08
4.88519e-06
3.98013e-08
4.88778e-06
3.69401e-08
4.89028e-06
3.38334e-08
3.0425e-08
4.8925e-06
5.1823e-06
2.19699e-08
5.18784e-06
4.10748e-08
5.19304e-06
5.00437e-08
5.1976e-06
5.35405e-08
5.20188e-06
5.51352e-08
5.2059e-06
5.53987e-08
5.20965e-06
5.46028e-08
5.21318e-06
5.31514e-08
5.21653e-06
5.13194e-08
5.21974e-06
4.9246e-08
5.22283e-06
4.70074e-08
5.22583e-06
4.46499e-08
5.22874e-06
4.21973e-08
5.2316e-06
3.96538e-08
5.23439e-06
3.70046e-08
5.23712e-06
3.42161e-08
5.2397e-06
3.12458e-08
2.81061e-08
5.24202e-06
5.5539e-06
1.94047e-08
5.55893e-06
3.605e-08
5.56404e-06
4.4936e-08
5.56871e-06
4.88653e-08
5.57316e-06
5.0689e-08
5.57739e-06
5.11661e-08
5.58139e-06
5.06057e-08
5.58517e-06
4.93661e-08
5.58878e-06
4.77106e-08
5.59224e-06
4.57852e-08
5.59558e-06
4.36726e-08
5.5988e-06
4.14233e-08
5.60193e-06
3.90658e-08
5.60498e-06
3.66102e-08
5.60793e-06
3.40524e-08
5.61077e-06
3.13791e-08
5.61343e-06
2.85801e-08
2.56986e-08
5.61584e-06
5.95218e-06
1.70015e-08
5.95674e-06
3.14923e-08
5.96168e-06
3.99912e-08
5.9664e-06
4.41421e-08
5.97097e-06
4.61269e-08
5.97537e-06
4.67672e-08
5.97957e-06
4.64038e-08
5.98358e-06
4.53561e-08
5.98742e-06
4.387e-08
5.99111e-06
4.20935e-08
5.99467e-06
4.01139e-08
5.99811e-06
3.79854e-08
6.00143e-06
3.57409e-08
6.00464e-06
3.33976e-08
6.00773e-06
3.09619e-08
6.01068e-06
2.84365e-08
6.01343e-06
2.58316e-08
2.32009e-08
6.01592e-06
6.37905e-06
1.47662e-08
6.3832e-06
2.73409e-08
6.38795e-06
3.52415e-08
6.39267e-06
3.94203e-08
6.39731e-06
4.14907e-08
6.40183e-06
4.22432e-08
6.4062e-06
4.20352e-08
6.4104e-06
4.11543e-08
6.41444e-06
3.98263e-08
6.41834e-06
3.81966e-08
6.4221e-06
3.63546e-08
6.42573e-06
3.43576e-08
6.42923e-06
3.22428e-08
6.43259e-06
3.00335e-08
6.43581e-06
2.77454e-08
6.43885e-06
2.53925e-08
6.44169e-06
2.29961e-08
2.06083e-08
6.44428e-06
5.7426e-06
1.29977e-08
5.74583e-06
2.41109e-08
5.74969e-06
3.13856e-08
5.75366e-06
3.54535e-08
5.75761e-06
3.75373e-08
5.76151e-06
3.83469e-08
5.7653e-06
3.82383e-08
5.76898e-06
3.74776e-08
5.77253e-06
3.6273e-08
5.77596e-06
3.47645e-08
5.77928e-06
3.30414e-08
5.78247e-06
3.11629e-08
5.78555e-06
2.91688e-08
5.78849e-06
2.70872e-08
5.7913e-06
2.49395e-08
5.79394e-06
2.2746e-08
5.79641e-06
2.0533e-08
1.83547e-08
5.79866e-06
7.00004e-06
1.11115e-08
7.00349e-06
2.06589e-08
7.00773e-06
2.71529e-08
7.01221e-06
3.09712e-08
7.01675e-06
3.29919e-08
7.02128e-06
3.38189e-08
7.02573e-06
3.37887e-08
7.03007e-06
3.31422e-08
7.03427e-06
3.20664e-08
7.03835e-06
3.06926e-08
7.04228e-06
2.91081e-08
7.04607e-06
2.73727e-08
7.04971e-06
2.55284e-08
7.05319e-06
2.36068e-08
7.0565e-06
2.16339e-08
7.05961e-06
1.96342e-08
7.0625e-06
1.76362e-08
1.56891e-08
7.06517e-06
8.53283e-06
9.12495e-09
8.53648e-06
1.70132e-08
8.54107e-06
2.25616e-08
8.54607e-06
2.59672e-08
8.55124e-06
2.78224e-08
8.55646e-06
2.86077e-08
8.56162e-06
2.86215e-08
8.56669e-06
2.80744e-08
8.57163e-06
2.71284e-08
8.57642e-06
2.59021e-08
8.58105e-06
2.44776e-08
8.58551e-06
2.29133e-08
8.58978e-06
2.12518e-08
8.59387e-06
1.95267e-08
8.59773e-06
1.7766e-08
8.60137e-06
1.59959e-08
8.60476e-06
1.42441e-08
1.25516e-08
8.6079e-06
1.04013e-05
7.05324e-09
1.04051e-05
1.31943e-08
1.041e-05
1.76267e-08
1.04156e-05
2.04381e-08
1.04214e-05
2.20001e-08
1.04273e-05
2.26635e-08
1.04333e-05
2.26718e-08
1.04392e-05
2.21989e-08
1.04449e-05
2.1378e-08
1.04505e-05
2.031e-08
1.04559e-05
1.90678e-08
1.04611e-05
1.77051e-08
1.04661e-05
1.62626e-08
1.04709e-05
1.47728e-08
1.04754e-05
1.32633e-08
1.04796e-05
1.1759e-08
1.04836e-05
1.02841e-08
8.87134e-09
1.04872e-05
1.26789e-05
4.89957e-09
1.26829e-05
9.19482e-09
1.26882e-05
1.23409e-08
1.26943e-05
1.43677e-08
1.27008e-05
1.54874e-08
1.27075e-05
1.59287e-08
1.27144e-05
1.58672e-08
1.27211e-05
1.54327e-08
1.27278e-05
1.47255e-08
1.27343e-05
1.38235e-08
1.27405e-05
1.27853e-08
1.27466e-05
1.16556e-08
1.27524e-05
1.04692e-08
1.27579e-05
9.25444e-09
1.27631e-05
8.0352e-09
1.27681e-05
6.83231e-09
1.27727e-05
5.66509e-09
4.5584e-09
1.2777e-05
1.54554e-05
2.63831e-09
1.54597e-05
4.95766e-09
1.54654e-05
6.6398e-09
1.54721e-05
7.68803e-09
1.54793e-05
8.20406e-09
1.5487e-05
8.30876e-09
1.54947e-05
8.10284e-09
1.55025e-05
7.66431e-09
1.55102e-05
7.055e-09
1.55177e-05
6.32427e-09
1.55249e-05
5.51093e-09
1.55319e-05
4.6455e-09
1.55387e-05
3.75255e-09
1.55451e-05
2.85235e-09
1.55511e-05
1.96207e-09
1.55569e-05
1.09645e-09
1.55623e-05
2.68805e-10
-5.03134e-10
1.55673e-05
1.88401e-05
1.88673e-10
1.88447e-05
3.2844e-10
1.8851e-05
3.34048e-10
1.88585e-05
2.01128e-10
1.88668e-05
-4.98851e-11
1.88755e-05
-3.96283e-10
1.88844e-05
-8.18879e-10
1.88934e-05
-1.29985e-09
1.89022e-05
-1.82236e-09
1.89109e-05
-2.37148e-09
1.89194e-05
-2.93444e-09
1.89275e-05
-3.5002e-09
1.89353e-05
-4.05901e-09
1.89428e-05
-4.6022e-09
1.89499e-05
-5.1221e-09
1.89566e-05
-5.61196e-09
1.89629e-05
-6.06539e-09
-6.47109e-09
1.89689e-05
2.29662e-05
-2.64133e-09
2.29716e-05
-5.05529e-09
2.29789e-05
-7.03794e-09
2.29877e-05
-8.58455e-09
2.29974e-05
-9.75408e-09
2.30077e-05
-1.06399e-08
2.30182e-05
-1.13225e-08
2.30287e-05
-1.18551e-08
2.30392e-05
-1.22738e-08
2.30494e-05
-1.26056e-08
2.30593e-05
-1.28704e-08
2.30689e-05
-1.30819e-08
2.30781e-05
-1.3249e-08
2.30869e-05
-1.33775e-08
2.30952e-05
-1.34714e-08
2.31032e-05
-1.35328e-08
2.31107e-05
-1.35625e-08
-1.35559e-08
2.31177e-05
1.68129e-05
-4.83612e-09
1.68171e-05
-9.2241e-09
1.68228e-05
-1.27263e-08
1.68295e-05
-1.52919e-08
1.68368e-05
-1.70704e-08
1.68444e-05
-1.82864e-08
1.68522e-05
-1.91057e-08
1.686e-05
-1.96304e-08
1.68676e-05
-1.99344e-08
1.68751e-05
-2.0076e-08
1.68823e-05
-2.00986e-08
1.68893e-05
-2.00331e-08
1.68959e-05
-1.99011e-08
1.69023e-05
-1.97185e-08
1.69083e-05
-1.94966e-08
1.6914e-05
-1.92435e-08
1.69194e-05
-1.89646e-08
-1.86593e-08
1.69245e-05
1.46367e-05
-6.93388e-09
1.46407e-05
-1.32623e-08
1.46462e-05
-1.82147e-08
1.46525e-05
-2.16294e-08
1.46593e-05
-2.3839e-08
1.46663e-05
-2.52592e-08
1.46733e-05
-2.613e-08
1.46803e-05
-2.65871e-08
1.46871e-05
-2.67391e-08
1.46937e-05
-2.66736e-08
1.47e-05
-2.64536e-08
1.47061e-05
-2.61228e-08
1.47119e-05
-2.57125e-08
1.47174e-05
-2.5246e-08
1.47227e-05
-2.47408e-08
1.47276e-05
-2.42099e-08
1.47323e-05
-2.36628e-08
-2.31027e-08
1.47368e-05
1.27421e-05
-8.94222e-09
1.27462e-05
-1.73398e-08
1.27517e-05
-2.3732e-08
1.27579e-05
-2.77609e-08
1.27642e-05
-3.01948e-08
1.27707e-05
-3.17031e-08
1.27771e-05
-3.25471e-08
1.27834e-05
-3.28768e-08
1.27895e-05
-3.28379e-08
1.27953e-05
-3.25457e-08
1.2801e-05
-3.20775e-08
1.28063e-05
-3.14856e-08
1.28114e-05
-3.08082e-08
1.28163e-05
-3.00741e-08
1.28208e-05
-2.93047e-08
1.28251e-05
-2.85164e-08
1.28292e-05
-2.77214e-08
-2.69255e-08
1.2833e-05
1.10927e-05
-1.07458e-08
1.1097e-05
-2.15983e-08
1.11027e-05
-2.94445e-08
1.11087e-05
-3.37352e-08
1.11147e-05
-3.61748e-08
1.11206e-05
-3.7669e-08
1.11265e-05
-3.84072e-08
1.11322e-05
-3.85524e-08
1.11376e-05
-3.82937e-08
1.11428e-05
-3.77655e-08
1.11478e-05
-3.70509e-08
1.11525e-05
-3.62071e-08
1.1157e-05
-3.52766e-08
1.11612e-05
-3.42916e-08
1.11652e-05
-3.3277e-08
1.11689e-05
-3.22534e-08
1.11724e-05
-3.12389e-08
-3.02504e-08
1.11758e-05
9.65661e-06
-1.21457e-08
9.66122e-06
-2.62026e-08
9.66714e-06
-3.53633e-08
9.67286e-06
-3.94589e-08
9.67846e-06
-4.17688e-08
9.68396e-06
-4.31753e-08
9.68927e-06
-4.37156e-08
9.69433e-06
-4.36116e-08
9.69914e-06
-4.31032e-08
9.7037e-06
-4.2331e-08
9.70803e-06
-4.13755e-08
9.71212e-06
-4.02937e-08
9.71597e-06
-3.91288e-08
9.71959e-06
-3.79131e-08
9.72298e-06
-3.66711e-08
9.72615e-06
-3.54229e-08
9.7291e-06
-3.4186e-08
-3.29728e-08
9.73182e-06
8.40602e-06
-1.28094e-08
8.4114e-06
-3.15816e-08
8.41726e-06
-4.12306e-08
8.42241e-06
-4.46067e-08
8.42749e-06
-4.68451e-08
8.43248e-06
-4.81734e-08
8.43724e-06
-4.84733e-08
8.44173e-06
-4.80951e-08
8.44595e-06
-4.73266e-08
8.44992e-06
-4.63063e-08
8.45366e-06
-4.51115e-08
8.45717e-06
-4.37991e-08
8.46045e-06
-4.24119e-08
8.46352e-06
-4.09804e-08
8.46637e-06
-3.95275e-08
8.46902e-06
-3.80743e-08
8.47149e-06
-3.66498e-08
-3.53171e-08
8.47383e-06
7.31569e-06
-1.12168e-08
7.32301e-06
-3.89036e-08
7.32872e-06
-4.69364e-08
7.33314e-06
-4.90291e-08
7.33756e-06
-5.12612e-08
7.34184e-06
-5.24597e-08
7.34587e-06
-5.24963e-08
7.34964e-06
-5.18717e-08
7.3532e-06
-5.08796e-08
7.35653e-06
-4.96416e-08
7.35965e-06
-4.82324e-08
7.36257e-06
-4.6711e-08
7.36527e-06
-4.51209e-08
7.36778e-06
-4.34906e-08
7.37009e-06
-4.18374e-08
7.37219e-06
-4.01707e-08
7.37404e-06
-3.84962e-08
-3.68106e-08
7.37553e-06
6.36252e-06
-3.66768e-09
6.37315e-06
-4.95381e-08
6.37908e-06
-5.28609e-08
6.38367e-06
-5.36219e-08
6.38804e-06
-5.56326e-08
6.39182e-06
-5.6243e-08
6.39505e-06
-5.57276e-08
6.39789e-06
-5.47103e-08
6.40043e-06
-5.34175e-08
6.40271e-06
-5.19237e-08
6.40477e-06
-5.02871e-08
6.40662e-06
-4.85598e-08
6.40828e-06
-4.67802e-08
6.40976e-06
-4.49724e-08
6.41107e-06
-4.31471e-08
6.4122e-06
-4.13032e-08
6.41315e-06
-3.94413e-08
-3.76498e-08
6.41398e-06
5.53242e-06
9.37983e-09
5.54347e-06
-6.05959e-08
5.54689e-06
-5.62794e-08
5.55081e-06
-5.75411e-08
5.55463e-06
-5.94509e-08
5.55752e-06
-5.91286e-08
5.55952e-06
-5.77328e-08
5.56082e-06
-5.60079e-08
5.56153e-06
-5.41288e-08
5.56175e-06
-5.21418e-08
5.56155e-06
-5.00908e-08
5.56101e-06
-4.80154e-08
5.56017e-06
-4.59434e-08
5.55909e-06
-4.38904e-08
5.5578e-06
-4.1858e-08
5.55632e-06
-3.98226e-08
5.55458e-06
-3.77026e-08
-3.52404e-08
5.55217e-06
4.84979e-06
-1.28035e-08
4.84476e-06
-5.55655e-08
4.83369e-06
-4.52089e-08
4.82446e-06
-4.83118e-08
4.81509e-06
-5.00795e-08
4.80525e-06
-4.92914e-08
4.79498e-06
-4.74629e-08
4.78428e-06
-4.53065e-08
4.77318e-06
-4.30319e-08
4.76177e-06
-4.07261e-08
4.75012e-06
-3.84479e-08
4.73835e-06
-3.62361e-08
4.72651e-06
-3.41127e-08
4.71471e-06
-3.20869e-08
4.70301e-06
-3.01563e-08
4.69149e-06
-2.82995e-08
4.68022e-06
-2.6431e-08
-2.41907e-08
4.66917e-06
4.18987e-06
4.13431e-06
4.0891e-06
4.04079e-06
3.99071e-06
3.94142e-06
3.89395e-06
3.84865e-06
3.80561e-06
3.76489e-06
3.72644e-06
3.6902e-06
3.65609e-06
3.624e-06
3.59385e-06
3.56555e-06
3.53912e-06
3.51493e-06
1.23909e-08
-1.23909e-08
2.4082e-08
-1.16912e-08
3.05881e-08
-6.50642e-09
3.08362e-08
-2.48285e-10
2.50721e-08
5.76393e-09
1.41693e-08
1.09027e-08
-8.38973e-10
1.50081e-08
-1.90374e-08
1.81982e-08
-3.95822e-08
2.05447e-08
-6.19655e-08
2.23831e-08
-8.59114e-08
2.39458e-08
-1.1124e-07
2.53282e-08
-1.37804e-07
2.6564e-08
-1.65468e-07
2.76641e-08
-1.94101e-07
2.86331e-08
-2.23578e-07
2.94768e-08
-2.53781e-07
3.02027e-08
-2.84602e-07
3.08206e-08
-3.15943e-07
3.13413e-08
-3.47719e-07
3.17759e-08
-3.79855e-07
3.21355e-08
-4.12285e-07
3.24308e-08
-4.44957e-07
3.26716e-08
-4.77824e-07
3.28671e-08
-5.1085e-07
3.30253e-08
-5.44003e-07
3.31537e-08
-5.77262e-07
3.32584e-08
-6.10607e-07
3.33451e-08
-6.44025e-07
3.34182e-08
-6.77507e-07
3.34816e-08
-7.11046e-07
3.35383e-08
-7.44636e-07
3.35906e-08
-7.78276e-07
3.36402e-08
-8.11965e-07
3.36886e-08
-8.45702e-07
3.3737e-08
-8.79488e-07
3.37862e-08
-9.13325e-07
3.38367e-08
-9.47213e-07
3.38882e-08
-9.81153e-07
3.39401e-08
-1.01515e-06
3.39922e-08
-1.04919e-06
3.40464e-08
-1.0833e-06
3.41085e-08
-1.11749e-06
3.41924e-08
-1.1518e-06
3.43074e-08
-1.18625e-06
3.44447e-08
-1.22084e-06
3.4594e-08
-1.25559e-06
3.4749e-08
-1.29049e-06
3.49054e-08
-1.32555e-06
3.506e-08
-1.36076e-06
3.52102e-08
-1.39612e-06
3.53537e-08
-1.43161e-06
3.54886e-08
-1.46722e-06
3.56129e-08
-1.50294e-06
3.5725e-08
-1.53877e-06
3.58233e-08
-1.57467e-06
3.59061e-08
-1.61065e-06
3.5972e-08
-1.64667e-06
3.60196e-08
-1.68271e-06
3.60474e-08
-1.71877e-06
3.60541e-08
-1.75481e-06
3.60384e-08
-1.79081e-06
3.59991e-08
-1.82674e-06
3.59349e-08
-1.86259e-06
3.58445e-08
-1.89831e-06
3.57269e-08
-1.93389e-06
3.55807e-08
-1.9693e-06
3.54047e-08
-2.0045e-06
3.51979e-08
-2.03945e-06
3.49589e-08
-2.07414e-06
3.46864e-08
-2.10852e-06
3.43792e-08
-2.14256e-06
3.40359e-08
-2.17621e-06
3.36551e-08
-2.20945e-06
3.32353e-08
-2.24222e-06
3.27749e-08
-2.27449e-06
3.22723e-08
-2.30622e-06
3.17257e-08
-2.33735e-06
3.11333e-08
-2.36785e-06
3.04933e-08
-2.39765e-06
2.98036e-08
-2.42671e-06
2.90622e-08
-2.45498e-06
2.82672e-08
-2.4824e-06
2.74165e-08
-2.5089e-06
2.65082e-08
-2.53444e-06
2.55402e-08
-2.55896e-06
2.4511e-08
-2.58237e-06
2.34188e-08
-2.60464e-06
2.22622e-08
-2.62568e-06
2.10403e-08
-2.64543e-06
1.97523e-08
-2.66383e-06
1.83983e-08
-2.68081e-06
1.6979e-08
-2.6963e-06
1.54953e-08
-2.71025e-06
1.39487e-08
-2.72259e-06
1.23399e-08
-2.73326e-06
1.06697e-08
-2.7422e-06
8.93885e-09
-2.74935e-06
7.15056e-09
-2.75466e-06
5.31045e-09
-2.75809e-06
3.42428e-09
-2.75958e-06
1.49346e-09
-2.7591e-06
-4.83523e-10
-2.75661e-06
-2.48826e-09
-2.7521e-06
-4.50621e-09
-2.74556e-06
-6.54246e-09
-2.73696e-06
-8.59703e-09
-2.72629e-06
-1.06689e-08
-2.71354e-06
-1.27569e-08
-2.69868e-06
-1.48594e-08
-2.6817e-06
-1.69745e-08
-2.6626e-06
-1.91002e-08
-2.64137e-06
-2.12341e-08
-2.618e-06
-2.33733e-08
-2.59248e-06
-2.55147e-08
-2.56483e-06
-2.76551e-08
-2.53504e-06
-2.97905e-08
-2.50312e-06
-3.19168e-08
-2.46909e-06
-3.40295e-08
-2.43297e-06
-3.61237e-08
-2.39477e-06
-3.81945e-08
-2.35454e-06
-4.02369e-08
-2.31229e-06
-4.22457e-08
-2.26807e-06
-4.42159e-08
-2.22193e-06
-4.61421e-08
-2.17391e-06
-4.8019e-08
-2.12407e-06
-4.98408e-08
-2.07247e-06
-5.16017e-08
-2.01918e-06
-5.32956e-08
-1.96426e-06
-5.49166e-08
-1.9078e-06
-5.64598e-08
-1.84988e-06
-5.79205e-08
-1.79058e-06
-5.92943e-08
-1.73001e-06
-6.05761e-08
-1.66825e-06
-6.17605e-08
-1.6054e-06
-6.2843e-08
-1.54158e-06
-6.38209e-08
-1.47689e-06
-6.46926e-08
-1.41144e-06
-6.54552e-08
-1.34533e-06
-6.61038e-08
-1.27869e-06
-6.66367e-08
-1.21164e-06
-6.70563e-08
-1.14427e-06
-6.73627e-08
-1.07672e-06
-6.75501e-08
-1.0091e-06
-6.76196e-08
-9.41521e-07
-6.75828e-08
-8.74084e-07
-6.74376e-08
-8.0691e-07
-6.71731e-08
-7.40097e-07
-6.68127e-08
-6.73739e-07
-6.63581e-08
-6.07951e-07
-6.57882e-08
-5.42809e-07
-6.51412e-08
-4.78401e-07
-6.44081e-08
-4.14808e-07
-6.35925e-08
-3.52089e-07
-6.2719e-08
-2.90327e-07
-6.17617e-08
-2.29543e-07
-6.07845e-08
-1.69874e-07
-5.96685e-08
-1.11328e-07
-5.85454e-08
-5.37966e-08
-5.75314e-08
2.76373e-09
-5.65602e-08
5.80855e-08
-5.53215e-08
1.1173e-07
-5.36448e-08
1.63635e-07
-5.19045e-08
2.13835e-07
-5.01996e-08
2.6242e-07
-4.85847e-08
3.09494e-07
-4.7074e-08
3.55154e-07
-4.56596e-08
3.99479e-07
-4.43256e-08
4.42542e-07
-4.30629e-08
4.84406e-07
-4.18631e-08
5.25116e-07
-4.07104e-08
5.64701e-07
-3.9585e-08
6.03149e-07
-3.84481e-08
6.40371e-07
-3.72216e-08
6.76117e-07
-3.57462e-08
7.09809e-07
-3.36911e-08
7.40175e-07
-3.03667e-08
7.64118e-07
-2.39426e-08
7.75733e-07
-1.16146e-08
2.59149e-08
7.49818e-07
4.98198e-09
-1.7373e-08
3.26662e-09
-9.97619e-09
-3.95905e-09
7.1889e-10
-1.5034e-08
1.08264e-08
-2.89138e-08
1.96435e-08
-4.51682e-08
2.71568e-08
-6.35651e-08
3.34048e-08
-8.38519e-08
3.84849e-08
-1.05891e-07
4.25832e-08
-1.29471e-07
4.59634e-08
-1.54351e-07
4.88254e-08
-1.8032e-07
5.12975e-08
-2.07209e-07
5.34531e-08
-2.34879e-07
5.53341e-08
-2.63214e-07
5.69677e-08
-2.92113e-07
5.83754e-08
-3.21488e-07
5.95775e-08
-3.51261e-07
6.0594e-08
-3.81365e-07
6.14453e-08
-4.11741e-07
6.21515e-08
-4.42338e-07
6.2732e-08
-4.73112e-07
6.32054e-08
-5.0403e-07
6.3589e-08
-5.35061e-07
6.38986e-08
-5.66185e-07
6.41486e-08
-5.97383e-07
6.43517e-08
-6.28644e-07
6.45191e-08
-6.59959e-07
6.46605e-08
-6.91325e-07
6.4784e-08
-7.2274e-07
6.48967e-08
-7.54206e-07
6.5004e-08
-7.85726e-07
6.51106e-08
-8.17306e-07
6.52201e-08
-8.48953e-07
6.53352e-08
-8.80674e-07
6.54581e-08
-9.12478e-07
6.55902e-08
-9.44374e-07
6.57323e-08
-9.76371e-07
6.58848e-08
-1.00848e-06
6.60481e-08
-1.04071e-06
6.62232e-08
-1.07308e-06
6.64124e-08
-1.10559e-06
6.66198e-08
-1.13824e-06
6.68494e-08
-1.17104e-06
6.71015e-08
-1.20396e-06
6.73706e-08
-1.23702e-06
6.76496e-08
-1.2702e-06
6.79326e-08
-1.30351e-06
6.82141e-08
-1.33694e-06
6.84894e-08
-1.37049e-06
6.87542e-08
-1.40414e-06
6.90047e-08
-1.43789e-06
6.92372e-08
-1.47172e-06
6.94483e-08
-1.50563e-06
6.96347e-08
-1.5396e-06
6.97935e-08
-1.57362e-06
6.99215e-08
-1.60766e-06
7.00161e-08
-1.64172e-06
7.00743e-08
-1.67576e-06
7.00936e-08
-1.70978e-06
7.00714e-08
-1.74375e-06
7.00053e-08
-1.77764e-06
6.98926e-08
-1.81144e-06
6.97312e-08
-1.84511e-06
6.95185e-08
-1.87864e-06
6.92524e-08
-1.91199e-06
6.89306e-08
-1.94513e-06
6.85506e-08
-1.97805e-06
6.81102e-08
-2.01069e-06
6.76069e-08
-2.04305e-06
6.70384e-08
-2.07507e-06
6.64021e-08
-2.10673e-06
6.56952e-08
-2.13799e-06
6.4915e-08
-2.16881e-06
6.40585e-08
-2.19916e-06
6.31227e-08
-2.22899e-06
6.21041e-08
-2.25827e-06
6.09994e-08
-2.28694e-06
5.98048e-08
-2.31496e-06
5.85165e-08
-2.34229e-06
5.71306e-08
-2.36887e-06
5.56429e-08
-2.39465e-06
5.40492e-08
-2.41958e-06
5.23456e-08
-2.4436e-06
5.05277e-08
-2.46665e-06
4.85919e-08
-2.48867e-06
4.65342e-08
-2.50961e-06
4.43516e-08
-2.52939e-06
4.2041e-08
-2.54795e-06
3.96004e-08
-2.56522e-06
3.70283e-08
-2.58115e-06
3.43244e-08
-2.59566e-06
3.14895e-08
-2.60869e-06
2.85254e-08
-2.62017e-06
2.54345e-08
-2.63005e-06
2.22196e-08
-2.63827e-06
1.88829e-08
-2.64476e-06
1.54274e-08
-2.64947e-06
1.18589e-08
-2.65234e-06
8.1856e-09
-2.65333e-06
4.41628e-09
-2.65239e-06
5.50365e-10
-2.64949e-06
-3.38446e-09
-2.64462e-06
-7.35515e-09
-2.63777e-06
-1.13625e-08
-2.6289e-06
-1.54077e-08
-2.61801e-06
-1.94898e-08
-2.60507e-06
-2.36064e-08
-2.59008e-06
-2.77551e-08
-2.573e-06
-3.19324e-08
-2.55384e-06
-3.61348e-08
-2.53259e-06
-4.03579e-08
-2.50922e-06
-4.45968e-08
-2.48375e-06
-4.8846e-08
-2.45617e-06
-5.30994e-08
-2.42647e-06
-5.73499e-08
-2.39467e-06
-6.15901e-08
-2.36078e-06
-6.58115e-08
-2.3248e-06
-7.00049e-08
-2.28677e-06
-7.41605e-08
-2.24669e-06
-7.82683e-08
-2.20461e-06
-8.2318e-08
-2.16056e-06
-8.62994e-08
-2.11457e-06
-9.0202e-08
-2.0667e-06
-9.40153e-08
-2.01699e-06
-9.77286e-08
-1.9655e-06
-1.0133e-07
-1.91229e-06
-1.04808e-07
-1.85744e-06
-1.0815e-07
-1.80101e-06
-1.11344e-07
-1.74309e-06
-1.1438e-07
-1.68376e-06
-1.17248e-07
-1.62312e-06
-1.1994e-07
-1.56125e-06
-1.22445e-07
-1.49826e-06
-1.24752e-07
-1.43425e-06
-1.26852e-07
-1.36933e-06
-1.2874e-07
-1.30361e-06
-1.30412e-07
-1.2372e-06
-1.31862e-07
-1.17023e-06
-1.33081e-07
-1.1028e-06
-1.34065e-07
-1.03503e-06
-1.34819e-07
-9.67053e-07
-1.35343e-07
-8.98975e-07
-1.35627e-07
-8.30922e-07
-1.35672e-07
-7.63004e-07
-1.355e-07
-6.95331e-07
-1.3511e-07
-6.28023e-07
-1.34481e-07
-5.61181e-07
-1.33654e-07
-4.94901e-07
-1.32638e-07
-4.29292e-07
-1.31398e-07
-3.64436e-07
-1.29996e-07
-3.00418e-07
-1.28426e-07
-2.3732e-07
-1.2669e-07
-1.75202e-07
-1.24836e-07
-1.14142e-07
-1.22822e-07
-5.41948e-08
-1.20732e-07
4.74327e-09
-1.18606e-07
6.24274e-08
-1.16229e-07
1.18561e-07
-1.13665e-07
1.73197e-07
-1.11196e-07
2.26322e-07
-1.08447e-07
2.77966e-07
-1.05288e-07
3.28175e-07
-1.02114e-07
3.76993e-07
-9.90177e-08
4.24457e-07
-9.60483e-08
4.70615e-07
-9.32315e-08
5.15526e-07
-9.05708e-08
5.59258e-07
-8.80576e-08
6.01879e-07
-8.56831e-08
6.43451e-07
-8.34349e-08
6.8403e-07
-8.12891e-08
7.23648e-07
-7.92029e-08
7.62299e-07
-7.70993e-08
7.99907e-07
-7.48299e-08
8.36265e-07
-7.21037e-08
8.7093e-07
-6.83555e-08
9.03012e-07
-6.24492e-08
9.31018e-07
-5.19483e-08
9.51773e-07
-3.23694e-08
9.65471e-09
9.68033e-07
-5.93637e-09
-1.14367e-08
-1.8318e-08
2.40514e-09
-3.30754e-08
1.54761e-08
-4.90225e-08
2.67734e-08
-6.60519e-08
3.66727e-08
-8.42024e-08
4.53073e-08
-1.03535e-07
5.27373e-08
-1.24093e-07
5.9043e-08
-1.45868e-07
6.43576e-08
-1.68755e-07
6.88505e-08
-1.92608e-07
7.26779e-08
-2.17273e-07
7.59632e-08
-2.42617e-07
7.87962e-08
-2.68524e-07
8.12411e-08
-2.94902e-07
8.33455e-08
-3.21674e-07
8.51477e-08
-3.48777e-07
8.66809e-08
-3.76159e-07
8.79755e-08
-4.03774e-07
8.90606e-08
-4.31586e-07
8.99631e-08
-4.59563e-07
9.07091e-08
-4.87681e-07
9.13226e-08
-5.15917e-07
9.18259e-08
-5.44258e-07
9.22392e-08
-5.72691e-07
9.25811e-08
-6.01207e-07
9.28676e-08
-6.29801e-07
9.31133e-08
-6.58471e-07
9.33304e-08
-6.87217e-07
9.35296e-08
-7.1604e-07
9.37197e-08
-7.44944e-07
9.39081e-08
-7.73934e-07
9.41007e-08
-8.03016e-07
9.43022e-08
-8.32197e-07
9.45162e-08
-8.61484e-07
9.47453e-08
-8.90886e-07
9.49913e-08
-9.20409e-07
9.52551e-08
-9.50061e-07
9.55371e-08
-9.7985e-07
9.58374e-08
-1.00978e-06
9.61562e-08
-1.03986e-06
9.64939e-08
-1.0701e-06
9.68511e-08
-1.10047e-06
9.72272e-08
-1.13099e-06
9.76194e-08
-1.16164e-06
9.80228e-08
-1.19243e-06
9.84313e-08
-1.22333e-06
9.88389e-08
-1.25436e-06
9.92398e-08
-1.2855e-06
9.96282e-08
-1.31674e-06
9.99988e-08
-1.34808e-06
1.00347e-07
-1.37951e-06
1.00666e-07
-1.41102e-06
1.00954e-07
-1.44259e-06
1.01204e-07
-1.47421e-06
1.01413e-07
-1.50586e-06
1.01576e-07
-1.53753e-06
1.01689e-07
-1.56921e-06
1.01749e-07
-1.60087e-06
1.01752e-07
-1.63249e-06
1.01693e-07
-1.66405e-06
1.0157e-07
-1.69554e-06
1.01378e-07
-1.72692e-06
1.01115e-07
-1.75818e-06
1.00777e-07
-1.78929e-06
1.00361e-07
-1.82022e-06
9.98631e-08
-1.85095e-06
9.92804e-08
-1.88145e-06
9.86096e-08
-1.91169e-06
9.7847e-08
-1.94164e-06
9.69892e-08
-1.97127e-06
9.60325e-08
-2.00055e-06
9.4973e-08
-2.02944e-06
9.38065e-08
-2.05791e-06
9.25288e-08
-2.08593e-06
9.11352e-08
-2.11344e-06
8.96209e-08
-2.14042e-06
8.79806e-08
-2.16683e-06
8.62089e-08
-2.19261e-06
8.42999e-08
-2.21773e-06
8.22477e-08
-2.24213e-06
8.0046e-08
-2.26577e-06
7.76885e-08
-2.28859e-06
7.51688e-08
-2.31055e-06
7.24806e-08
-2.33157e-06
6.96177e-08
-2.35161e-06
6.65745e-08
-2.37061e-06
6.33456e-08
-2.38849e-06
5.99266e-08
-2.40521e-06
5.63139e-08
-2.42068e-06
5.25051e-08
-2.43486e-06
4.84992e-08
-2.44767e-06
4.42968e-08
-2.45904e-06
3.99e-08
-2.46892e-06
3.53122e-08
-2.47724e-06
3.05379e-08
-2.48394e-06
2.55817e-08
-2.48896e-06
2.04493e-08
-2.49225e-06
1.5149e-08
-2.49375e-06
9.6912e-09
-2.49343e-06
4.08797e-09
-2.49123e-06
-1.64313e-09
-2.48715e-06
-7.46416e-09
-2.48116e-06
-1.33447e-08
-2.47324e-06
-1.92816e-08
-2.46338e-06
-2.5275e-08
-2.45154e-06
-3.13231e-08
-2.43773e-06
-3.74229e-08
-2.42191e-06
-4.35706e-08
-2.40408e-06
-4.97614e-08
-2.38423e-06
-5.59896e-08
-2.36234e-06
-6.22488e-08
-2.3384e-06
-6.85317e-08
-2.31242e-06
-7.48298e-08
-2.28439e-06
-8.1134e-08
-2.2543e-06
-8.74339e-08
-2.22217e-06
-9.37182e-08
-2.18801e-06
-9.99741e-08
-2.15183e-06
-1.06188e-07
-2.11364e-06
-1.12345e-07
-2.07348e-06
-1.18429e-07
-2.03138e-06
-1.24426e-07
-1.98736e-06
-1.30319e-07
-1.94147e-06
-1.36093e-07
-1.89375e-06
-1.41732e-07
-1.84426e-06
-1.47221e-07
-1.79305e-06
-1.52541e-07
-1.74018e-06
-1.57674e-07
-1.68573e-06
-1.62602e-07
-1.62977e-06
-1.67306e-07
-1.57238e-06
-1.71771e-07
-1.51364e-06
-1.75983e-07
-1.45365e-06
-1.79929e-07
-1.3925e-06
-1.83594e-07
-1.33029e-06
-1.8696e-07
-1.26713e-06
-1.90012e-07
-1.20313e-06
-1.92743e-07
-1.13839e-06
-1.9515e-07
-1.07303e-06
-1.97223e-07
-1.00716e-06
-1.98948e-07
-9.40911e-07
-2.00318e-07
-8.74389e-07
-2.01341e-07
-8.07712e-07
-2.0202e-07
-7.41e-07
-2.0234e-07
-6.74373e-07
-2.02299e-07
-6.07942e-07
-2.01932e-07
-5.41811e-07
-2.01241e-07
-4.76098e-07
-2.00193e-07
-4.10905e-07
-1.98848e-07
-3.4632e-07
-1.97223e-07
-2.82448e-07
-1.95269e-07
-2.19372e-07
-1.93073e-07
-1.57163e-07
-1.90635e-07
-9.59102e-08
-1.87944e-07
-3.56503e-08
-1.85096e-07
2.35672e-08
-1.82039e-07
8.15522e-08
-1.78717e-07
1.38185e-07
-1.75239e-07
1.93478e-07
-1.71522e-07
2.47397e-07
-1.67584e-07
2.99874e-07
-1.63673e-07
3.50976e-07
-1.59548e-07
4.00807e-07
-1.55119e-07
4.4936e-07
-1.50667e-07
4.96655e-07
-1.46312e-07
5.42717e-07
-1.42111e-07
5.87586e-07
-1.381e-07
6.31313e-07
-1.34297e-07
6.73959e-07
-1.30703e-07
7.1559e-07
-1.27314e-07
7.56271e-07
-1.24116e-07
7.96058e-07
-1.21077e-07
8.3499e-07
-1.18135e-07
8.7307e-07
-1.15179e-07
9.10241e-07
-1.12001e-07
9.46351e-07
-1.08213e-07
9.81097e-07
-1.03102e-07
1.01398e-06
-9.53298e-08
1.04442e-06
-8.23858e-08
1.07219e-06
-6.0144e-08
-2.01404e-08
1.10198e-06
-1.41223e-08
2.68547e-09
-3.19856e-08
2.02682e-08
-5.03883e-08
3.38787e-08
-6.90552e-08
4.54403e-08
-8.80205e-08
5.56379e-08
-1.07396e-07
6.46826e-08
-1.27307e-07
7.26482e-08
-1.47853e-07
7.95895e-08
-1.69083e-07
8.55872e-08
-1.90981e-07
9.07483e-08
-2.13489e-07
9.51862e-08
-2.36531e-07
9.90053e-08
-2.60029e-07
1.02294e-07
-2.8391e-07
1.05123e-07
-3.08117e-07
1.07552e-07
-3.32597e-07
1.09628e-07
-3.57313e-07
1.11396e-07
-3.8223e-07
1.12893e-07
-4.07324e-07
1.14154e-07
-4.32572e-07
1.15211e-07
-4.57958e-07
1.16095e-07
-4.83468e-07
1.16833e-07
-5.09093e-07
1.17451e-07
-5.34824e-07
1.17971e-07
-5.60658e-07
1.18414e-07
-5.8659e-07
1.188e-07
-6.12621e-07
1.19143e-07
-6.38749e-07
1.19459e-07
-6.64978e-07
1.19759e-07
-6.91311e-07
1.20052e-07
-7.1775e-07
1.20348e-07
-7.44302e-07
1.20653e-07
-7.70972e-07
1.20972e-07
-7.97764e-07
1.21309e-07
-8.24686e-07
1.21666e-07
-8.51741e-07
1.22047e-07
-8.78936e-07
1.2245e-07
-9.06275e-07
1.22877e-07
-9.33763e-07
1.23325e-07
-9.61403e-07
1.23796e-07
-9.89195e-07
1.24286e-07
-1.01714e-06
1.24794e-07
-1.04523e-06
1.25318e-07
-1.07346e-06
1.25852e-07
-1.10183e-06
1.26392e-07
-1.13033e-06
1.26932e-07
-1.15896e-06
1.27465e-07
-1.1877e-06
1.27984e-07
-1.21656e-06
1.28483e-07
-1.24552e-06
1.28957e-07
-1.27457e-06
1.29398e-07
-1.3037e-06
1.29801e-07
-1.33291e-06
1.30159e-07
-1.36217e-06
1.30469e-07
-1.39148e-06
1.30723e-07
-1.42082e-06
1.30916e-07
-1.45018e-06
1.31044e-07
-1.47953e-06
1.31101e-07
-1.50886e-06
1.31083e-07
-1.53815e-06
1.30985e-07
-1.56738e-06
1.30802e-07
-1.59654e-06
1.3053e-07
-1.62559e-06
1.30165e-07
-1.65451e-06
1.29702e-07
-1.68329e-06
1.29137e-07
-1.71189e-06
1.28466e-07
-1.7403e-06
1.27685e-07
-1.76848e-06
1.2679e-07
-1.7964e-06
1.25775e-07
-1.82405e-06
1.24637e-07
-1.85139e-06
1.23371e-07
-1.87839e-06
1.21972e-07
-1.90502e-06
1.20435e-07
-1.93124e-06
1.18753e-07
-1.95703e-06
1.16922e-07
-1.98234e-06
1.14934e-07
-2.00715e-06
1.12783e-07
-2.0314e-06
1.10462e-07
-2.05506e-06
1.07962e-07
-2.07809e-06
1.05276e-07
-2.10044e-06
1.02396e-07
-2.12206e-06
9.93118e-08
-2.14291e-06
9.60161e-08
-2.16293e-06
9.24998e-08
-2.18207e-06
8.87544e-08
-2.20026e-06
8.47719e-08
-2.21746e-06
8.05448e-08
-2.2336e-06
7.60668e-08
-2.24862e-06
7.13326e-08
-2.26246e-06
6.63386e-08
-2.27504e-06
6.10828e-08
-2.28631e-06
5.55653e-08
-2.2962e-06
4.97884e-08
-2.30464e-06
4.37567e-08
-2.31158e-06
3.74759e-08
-2.31695e-06
3.09534e-08
-2.3207e-06
2.41978e-08
-2.32277e-06
1.72206e-08
-2.32312e-06
1.0036e-08
-2.32169e-06
2.65698e-09
-2.31845e-06
-4.87658e-09
-2.3134e-06
-1.25137e-08
-2.30651e-06
-2.02337e-08
-2.29777e-06
-2.80306e-08
-2.28714e-06
-3.59026e-08
-2.27461e-06
-4.38472e-08
-2.26018e-06
-5.18605e-08
-2.24381e-06
-5.99373e-08
-2.2255e-06