/*--------------------------------*- C++ -*----------------------------------*\
| =========                 |                                                 |
| \\      /  F ield         | OpenFOAM: The Open Source CFD Toolbox           |
|  \\    /   O peration     | Version:  plus                                  |
|   \\  /    A nd           | Website:  www.openfoam.com                      |
|    \\/     M anipulation  |                                                 |
\*---------------------------------------------------------------------------*/
FoamFile
{
    version     2.0;
    format      ascii;
    class       volVectorField;
    location    "200";
    object      U;
}
// * * * * * * * * * * * * * * * * * * * * * * * * * * * * * * * * * * * * * //

dimensions      [0 1 -1 0 0 0 0];


internalField   nonuniform List<vector> 
12225
(
(9.80107 -1.3116 0)
(9.70376 -0.821235 0)
(9.51736 -0.551091 0)
(9.31536 -0.379973 0)
(9.12595 -0.266634 0)
(8.95096 -0.189575 0)
(8.7886 -0.135889 0)
(8.63796 -0.0977369 0)
(8.4984 -0.0702091 0)
(8.36919 -0.050107 0)
(8.2495 -0.0352824 0)
(8.13858 -0.0242622 0)
(8.03572 -0.0160185 0)
(7.94031 -0.00982017 0)
(7.85171 -0.00512275 0)
(7.76909 -0.00140177 0)
(7.68811 0.00291012 0)
(7.62855 -0.0284071 0)
(10.0702 0.412459 0)
(10.0578 0.41845 0)
(10.0222 0.347403 0)
(9.97322 0.285034 0)
(9.92314 0.23465 0)
(9.87263 0.19433 0)
(9.82072 0.162677 0)
(9.76767 0.13803 0)
(9.71423 0.118786 0)
(9.66099 0.10365 0)
(9.6084 0.0916371 0)
(9.5568 0.0820062 0)
(9.50647 0.0742013 0)
(9.45764 0.067811 0)
(9.41045 0.0625668 0)
(9.3651 0.0584849 0)
(9.3229 0.0568553 0)
(9.28762 0.0669844 0)
(9.99418 0.0581427 0)
(10.006 0.0263478 0)
(10.0217 -0.00244398 0)
(10.0278 -0.00716159 0)
(10.0301 -0.00254514 0)
(10.0301 0.00417412 0)
(10.0274 0.0111234 0)
(10.0224 0.0176336 0)
(10.0156 0.0233594 0)
(10.0075 0.0281827 0)
(9.99844 0.0321256 0)
(9.98862 0.0352709 0)
(9.97831 0.0377195 0)
(9.96771 0.0395787 0)
(9.95704 0.0409832 0)
(9.94668 0.0421719 0)
(9.93788 0.0433482 0)
(9.93022 0.0414934 0)
(9.99769 0.0153024 0)
(10.0096 0.0338705 0)
(10.0291 0.0428475 0)
(10.0404 0.0523386 0)
(10.0479 0.0595428 0)
(10.0542 0.0634404 0)
(10.0593 0.0651061 0)
(10.0631 0.0655061 0)
(10.0661 0.0651606 0)
(10.0684 0.0643579 0)
(10.0702 0.0632787 0)
(10.0717 0.0620363 0)
(10.0729 0.060697 0)
(10.074 0.0592992 0)
(10.075 0.0578706 0)
(10.0762 0.0564135 0)
(10.0784 0.0546089 0)
(10.0808 0.0504406 0)
(10.0012 0.0168548 0)
(10.0127 0.040706 0)
(10.0295 0.047979 0)
(10.0402 0.051023 0)
(10.0482 0.0529204 0)
(10.0556 0.0535824 0)
(10.0624 0.0535353 0)
(10.0684 0.0532586 0)
(10.0739 0.0529222 0)
(10.079 0.0525515 0)
(10.0837 0.0521385 0)
(10.0882 0.0516681 0)
(10.0926 0.0511204 0)
(10.0968 0.0504704 0)
(10.101 0.0496806 0)
(10.1053 0.0486516 0)
(10.1101 0.0470263 0)
(10.1148 0.0437889 0)
(10.002 0.0181966 0)
(10.0124 0.0376908 0)
(10.0268 0.0438022 0)
(10.0374 0.0462916 0)
(10.0457 0.0484876 0)
(10.0536 0.0499991 0)
(10.0609 0.0508623 0)
(10.0677 0.0513509 0)
(10.0739 0.0515972 0)
(10.0798 0.0516373 0)
(10.0855 0.0514861 0)
(10.0909 0.0511534 0)
(10.0961 0.0506398 0)
(10.1013 0.0499317 0)
(10.1064 0.0489883 0)
(10.1116 0.0477012 0)
(10.1169 0.0458017 0)
(10.122 0.0428258 0)
(10.002 0.0166642 0)
(10.011 0.0327935 0)
(10.0237 0.0395285 0)
(10.0341 0.0428681 0)
(10.0426 0.0455537 0)
(10.0506 0.0474108 0)
(10.0581 0.0484758 0)
(10.065 0.0490321 0)
(10.0715 0.0492587 0)
(10.0777 0.049231 0)
(10.0837 0.0489865 0)
(10.0894 0.0485458 0)
(10.095 0.0479124 0)
(10.1004 0.0470699 0)
(10.1058 0.0459716 0)
(10.1112 0.0445175 0)
(10.1165 0.0425236 0)
(10.1216 0.0397872 0)
(10.0018 0.0147356 0)
(10.0095 0.0287062 0)
(10.0207 0.035919 0)
(10.0306 0.0397778 0)
(10.0391 0.0425804 0)
(10.047 0.0444878 0)
(10.0545 0.0456017 0)
(10.0615 0.0461858 0)
(10.0681 0.0464209 0)
(10.0744 0.0463898 0)
(10.0805 0.0461318 0)
(10.0864 0.0456663 0)
(10.0921 0.0449944 0)
(10.0976 0.0440976 0)
(10.1031 0.0429321 0)
(10.1084 0.0414197 0)
(10.1136 0.0394475 0)
(10.1185 0.0369517 0)
(10.0016 0.0130233 0)
(10.0082 0.0252466 0)
(10.0179 0.0324392 0)
(10.0272 0.0365101 0)
(10.0354 0.0393321 0)
(10.0431 0.0412645 0)
(10.0505 0.0424397 0)
(10.0576 0.0430789 0)
(10.0642 0.0433477 0)
(10.0706 0.0433299 0)
(10.0767 0.0430675 0)
(10.0826 0.0425807 0)
(10.0883 0.0418727 0)
(10.0939 0.0409288 0)
(10.0993 0.0397154 0)
(10.1045 0.0381801 0)
(10.1095 0.0362627 0)
(10.1142 0.033968 0)
(10.0015 0.0114621 0)
(10.007 0.0221264 0)
(10.0154 0.0290049 0)
(10.024 0.0331362 0)
(10.0318 0.0359555 0)
(10.0393 0.0378968 0)
(10.0465 0.0391125 0)
(10.0534 0.0397889 0)
(10.06 0.0400766 0)
(10.0664 0.0400609 0)
(10.0725 0.0397867 0)
(10.0783 0.0392772 0)
(10.084 0.0385389 0)
(10.0895 0.0375637 0)
(10.0948 0.0363304 0)
(10.0999 0.0348093 0)
(10.1047 0.0329764 0)
(10.1093 0.0308679 0)
(10.0013 0.010009 0)
(10.006 0.0192821 0)
(10.0133 0.0256897 0)
(10.0211 0.0297564 0)
(10.0285 0.032525 0)
(10.0357 0.0344316 0)
(10.0426 0.0356453 0)
(10.0494 0.0363279 0)
(10.0558 0.0366149 0)
(10.0621 0.0365899 0)
(10.0681 0.0363 0)
(10.0739 0.0357705 0)
(10.0794 0.0350121 0)
(10.0848 0.0340235 0)
(10.09 0.0327954 0)
(10.0949 0.0313163 0)
(10.0995 0.0295848 0)
(10.104 0.0276485 0)
(10.0011 0.00874806 0)
(10.0053 0.0168733 0)
(10.0116 0.0227658 0)
(10.0187 0.0266727 0)
(10.0257 0.029344 0)
(10.0326 0.0311803 0)
(10.0393 0.0323578 0)
(10.0458 0.0330209 0)
(10.0521 0.0332911 0)
(10.0582 0.0332487 0)
(10.0641 0.0329409 0)
(10.0697 0.0323953 0)
(10.0752 0.031626 0)
(10.0805 0.0306382 0)
(10.0855 0.029432 0)
(10.0902 0.0280085 0)
(10.0947 0.0263788 0)
(10.099 0.0245945 0)
(10.001 0.00757769 0)
(10.0046 0.0146517 0)
(10.0102 0.0199708 0)
(10.0167 0.0236327 0)
(10.0233 0.0261613 0)
(10.0298 0.0278977 0)
(10.0362 0.0290132 0)
(10.0425 0.0296378 0)
(10.0486 0.0298794 0)
(10.0545 0.0298131 0)
(10.0602 0.0294857 0)
(10.0658 0.0289264 0)
(10.0711 0.0281529 0)
(10.0762 0.0271758 0)
(10.081 0.0260028 0)
(10.0856 0.0246438 0)
(10.0899 0.0231177 0)
(10.094 0.0214784 0)
(10.0009 0.00635456 0)
(10.004 0.0123137 0)
(10.0089 0.0169356 0)
(10.0147 0.0202285 0)
(10.0208 0.02253 0)
(10.0269 0.0241078 0)
(10.033 0.025117 0)
(10.039 0.025671 0)
(10.0449 0.0258623 0)
(10.0506 0.0257587 0)
(10.0561 0.0254054 0)
(10.0615 0.0248324 0)
(10.0666 0.0240605 0)
(10.0715 0.0231051 0)
(10.0762 0.0219802 0)
(10.0806 0.0207017 0)
(10.0847 0.0192927 0)
(10.0887 0.0178026 0)
(10.0007 0.00507753 0)
(10.0034 0.00985881 0)
(10.0077 0.0136638 0)
(10.0128 0.0164532 0)
(10.0184 0.0184239 0)
(10.0241 0.0197676 0)
(10.0298 0.0206129 0)
(10.0355 0.0210536 0)
(10.0411 0.0211658 0)
(10.0466 0.0210075 0)
(10.0519 0.0206202 0)
(10.057 0.0200337 0)
(10.0619 0.0192703 0)
(10.0666 0.0183487 0)
(10.0711 0.0172866 0)
(10.0753 0.0161031 0)
(10.0792 0.0148219 0)
(10.083 0.013485 0)
(10.0006 0.00374792 0)
(10.0029 0.00728975 0)
(10.0066 0.0101595 0)
(10.0112 0.0123035 0)
(10.0162 0.0138225 0)
(10.0215 0.0148395 0)
(10.0269 0.0154489 0)
(10.0322 0.0157223 0)
(10.0376 0.0157178 0)
(10.0428 0.0154816 0)
(10.0478 0.015049 0)
(10.0527 0.0144469 0)
(10.0573 0.0136974 0)
(10.0618 0.0128198 0)
(10.0661 0.0118323 0)
(10.0701 0.0107543 0)
(10.0738 0.00960703 0)
(10.0775 0.00842474 0)
(10.0006 0.00235881 0)
(10.0025 0.00458865 0)
(10.0057 0.00640324 0)
(10.0098 0.00775631 0)
(10.0144 0.00869088 0)
(10.0193 0.00927372 0)
(10.0243 0.00956277 0)
(10.0293 0.00960449 0)
(10.0344 0.00943755 0)
(10.0393 0.00909402 0)
(10.0441 0.00859999 0)
(10.0487 0.00797682 0)
(10.0531 0.0072429 0)
(10.0574 0.00641499 0)
(10.0614 0.00550926 0)
(10.0653 0.00454194 0)
(10.0689 0.00353042 0)
(10.0724 0.00250113 0)
(10.0005 0.000877973 0)
(10.0022 0.00169083 0)
(10.0051 0.00231514 0)
(10.0089 0.00272551 0)
(10.0131 0.00293391 0)
(10.0177 0.00296372 0)
(10.0224 0.00283708 0)
(10.0271 0.00257339 0)
(10.0319 0.00219008 0)
(10.0366 0.00170269 0)
(10.0411 0.00112485 0)
(10.0455 0.000468744 0)
(10.0498 -0.000254242 0)
(10.0538 -0.00103307 0)
(10.0577 -0.00185676 0)
(10.0614 -0.00271422 0)
(10.0648 -0.00359355 0)
(10.0682 -0.00447518 0)
(10.0005 -0.000772622 0)
(10.0021 -0.00155113 0)
(10.0049 -0.00229044 0)
(10.0085 -0.00298512 0)
(10.0126 -0.00364273 0)
(10.017 -0.00428007 0)
(10.0215 -0.00491282 0)
(10.0261 -0.00555118 0)
(10.0307 -0.00620132 0)
(10.0352 -0.00686717 0)
(10.0396 -0.00755086 0)
(10.0439 -0.00825282 0)
(10.048 -0.00897196 0)
(10.0519 -0.00970597 0)
(10.0556 -0.0104516 0)
(10.0592 -0.011205 0)
(10.0625 -0.0119609 0)
(10.0658 -0.0127063 0)
(10.0005 -0.00234759 0)
(10.0023 -0.00465337 0)
(10.0052 -0.00669922 0)
(10.0089 -0.00843439 0)
(10.0132 -0.0098894 0)
(10.0177 -0.0111311 0)
(10.0223 -0.012216 0)
(10.027 -0.0131826 0)
(10.0316 -0.0140603 0)
(10.0361 -0.0148727 0)
(10.0405 -0.0156381 0)
(10.0447 -0.0163693 0)
(10.0487 -0.0170752 0)
(10.0526 -0.0177617 0)
(10.0563 -0.0184325 0)
(10.0598 -0.0190895 0)
(10.0631 -0.0197327 0)
(10.0663 -0.0203551 0)
(10.0005 -0.00370242 0)
(10.0025 -0.00734461 0)
(10.0058 -0.0105055 0)
(10.0099 -0.0130628 0)
(10.0145 -0.0151056 0)
(10.0192 -0.0167794 0)
(10.024 -0.0181805 0)
(10.0288 -0.0193674 0)
(10.0335 -0.0203877 0)
(10.0381 -0.0212826 0)
(10.0425 -0.0220837 0)
(10.0468 -0.0228143 0)
(10.0509 -0.0234912 0)
(10.0547 -0.0241271 0)
(10.0584 -0.0247314 0)
(10.0619 -0.0253109 0)
(10.0652 -0.0258702 0)
(10.0684 -0.026407 0)
(10.0006 -0.00499978 0)
(10.0028 -0.0100067 0)
(10.0066 -0.0142547 0)
(10.0113 -0.0174988 0)
(10.0163 -0.0199773 0)
(10.0214 -0.0219618 0)
(10.0264 -0.0235837 0)
(10.0314 -0.0249159 0)
(10.0363 -0.0260235 0)
(10.041 -0.0269612 0)
(10.0455 -0.0277691 0)
(10.0499 -0.0284761 0)
(10.054 -0.0291042 0)
(10.0579 -0.0296711 0)
(10.0616 -0.0301907 0)
(10.065 -0.0306744 0)
(10.0683 -0.0311305 0)
(10.0715 -0.0315601 0)
(10.0006 -0.0062175 0)
(10.0031 -0.0127199 0)
(10.0076 -0.0180376 0)
(10.0131 -0.0218196 0)
(10.0186 -0.0246213 0)
(10.0241 -0.0268326 0)
(10.0294 -0.0285834 0)
(10.0346 -0.0299692 0)
(10.0396 -0.0310904 0)
(10.0445 -0.0320223 0)
(10.0491 -0.0328122 0)
(10.0534 -0.0334918 0)
(10.0576 -0.0340844 0)
(10.0615 -0.0346085 0)
(10.0652 -0.0350794 0)
(10.0687 -0.0355111 0)
(10.0719 -0.0359172 0)
(10.0751 -0.0363097 0)
(10.0005 -0.00733591 0)
(10.0032 -0.0157078 0)
(10.0087 -0.0218534 0)
(10.0151 -0.0257992 0)
(10.0212 -0.0288168 0)
(10.0269 -0.0312784 0)
(10.0325 -0.0331756 0)
(10.0379 -0.0345969 0)
(10.043 -0.0356784 0)
(10.0479 -0.0365195 0)
(10.0525 -0.0371828 0)
(10.0568 -0.0377121 0)
(10.0609 -0.0381409 0)
(10.0648 -0.0384942 0)
(10.0685 -0.0387923 0)
(10.0719 -0.0390524 0)
(10.075 -0.0392905 0)
(10.078 -0.0395174 0)
(10.0001 -0.00806746 0)
(10.0031 -0.0198099 0)
(10.01 -0.0265404 0)
(10.0172 -0.0298247 0)
(10.0234 -0.0324893 0)
(10.0293 -0.0349173 0)
(10.0351 -0.0369285 0)
(10.0406 -0.0385538 0)
(10.0458 -0.0398843 0)
(10.0507 -0.0409731 0)
(10.0553 -0.0418532 0)
(10.0596 -0.0425546 0)
(10.0636 -0.0431057 0)
(10.0674 -0.0435314 0)
(10.0709 -0.0438538 0)
(10.0742 -0.044096 0)
(10.0772 -0.0442893 0)
(10.0802 -0.0444902 0)
(9.99855 -0.00569465 0)
(10.0014 -0.0234644 0)
(10.0108 -0.0323555 0)
(10.0189 -0.0356445 0)
(10.025 -0.037459 0)
(10.0307 -0.0385162 0)
(10.0363 -0.0390684 0)
(10.0417 -0.0394313 0)
(10.0467 -0.0397708 0)
(10.0514 -0.0401235 0)
(10.0558 -0.0404845 0)
(10.0599 -0.0408439 0)
(10.0638 -0.0411909 0)
(10.0673 -0.0415141 0)
(10.0706 -0.0418026 0)
(10.0736 -0.0420492 0)
(10.0763 -0.0422562 0)
(10.0787 -0.0424503 0)
(9.99327 0.000493668 0)
(9.99448 -0.0181867 0)
(10.0078 -0.0309914 0)
(10.0183 -0.0417368 0)
(10.0253 -0.0502099 0)
(10.0313 -0.0556013 0)
(10.0368 -0.058597 0)
(10.0416 -0.060102 0)
(10.0458 -0.0606826 0)
(10.0495 -0.0606646 0)
(10.0529 -0.0602625 0)
(10.056 -0.0596251 0)
(10.0587 -0.0588508 0)
(10.0612 -0.0579999 0)
(10.0634 -0.0571039 0)
(10.0653 -0.0561727 0)
(10.0669 -0.0552113 0)
(10.0684 -0.0542777 0)
(9.98682 -0.0215111 0)
(9.9853 9.58477e-05 0)
(9.99732 0.0230756 0)
(10.0065 0.0274567 0)
(10.0134 0.0225935 0)
(10.0193 0.0154175 0)
(10.0238 0.00792669 0)
(10.0268 0.0006938 0)
(10.0286 -0.00595582 0)
(10.0294 -0.0118564 0)
(10.0294 -0.0169778 0)
(10.0287 -0.0213629 0)
(10.0274 -0.0250807 0)
(10.0257 -0.0282028 0)
(10.0235 -0.03079 0)
(10.021 -0.0328775 0)
(10.0181 -0.0344575 0)
(10.0144 -0.0354623 0)
(10.0405 -0.330297 0)
(10.0412 -0.356836 0)
(10.0272 -0.306869 0)
(10.005 -0.259666 0)
(9.9838 -0.220999 0)
(9.96387 -0.188928 0)
(9.94339 -0.162725 0)
(9.92178 -0.141611 0)
(9.89917 -0.124618 0)
(9.8758 -0.110874 0)
(9.85188 -0.0996861 0)
(9.82759 -0.0905174 0)
(9.8031 -0.0829493 0)
(9.77858 -0.0766507 0)
(9.7542 -0.0713536 0)
(9.73011 -0.0668209 0)
(9.70646 -0.0627796 0)
(9.6827 -0.0586587 0)
(9.91215 1.02634 0)
(9.89902 0.659762 0)
(9.80192 0.458291 0)
(9.67971 0.327777 0)
(9.55633 0.237951 0)
(9.43703 0.174655 0)
(9.32189 0.129018 0)
(9.21139 0.095455 0)
(9.10614 0.0704127 0)
(9.0064 0.0515271 0)
(8.91217 0.0371619 0)
(8.82331 0.0261567 0)
(8.73962 0.0176762 0)
(8.66087 0.0111118 0)
(8.58683 0.0060178 0)
(8.51729 0.00207319 0)
(8.45218 -0.000907593 0)
(8.38966 -0.00288548 0)
(0.00648636 -0.0155931 -7.5125e-19)
(0.0168515 -0.0178441 6.22251e-19)
(0.0248353 -0.0130869 0)
(0.028553 -0.00593117 0)
(0.0260347 0.00188521 0)
(0.0185771 0.00916325 -4.98212e-19)
(0.00718344 0.0152549 0)
(-0.00841852 0.0198129 0)
(-0.0256696 0.0224103 0)
(-0.0448327 0.0241346 0)
(-0.0655272 0.0255069 3.19312e-19)
(-0.0875389 0.0266984 0)
(-0.110731 0.0277472 0)
(-0.134983 0.0286539 0)
(-0.160179 0.0294161 0)
(-0.186206 0.0300369 1.87542e-19)
(-0.212955 0.0305252 0)
(-0.240328 0.0308932 0)
(-0.268235 0.0311549 0)
(-0.296594 0.0313247 0)
(-0.325335 0.0314163 0)
(-0.354396 0.0314426 0)
(-0.383727 0.0314151 0)
(-0.413282 0.0313441 1.08618e-19)
(-0.443026 0.0312385 -1.03144e-19)
(-0.47293 0.0311059 9.82075e-20)
(-0.502971 0.0309527 9.37368e-20)
(-0.533131 0.030784 0)
(-0.563395 0.0306041 0)
(-0.593755 0.0304161 -8.25597e-20)
(-0.624204 0.0302227 -7.94339e-20)
(-0.654738 0.0300255 0)
(-0.685355 0.0298256 0)
(-0.716053 0.0296235 -7.14124e-20)
(-0.746833 0.029419 0)
(-0.777693 0.0292114 0)
(-0.808634 0.0290001 6.49656e-20)
(-0.83966 0.0287856 0)
(-0.870773 0.0285695 6.13284e-20)
(-0.901979 0.0283565 1.19346e-19)
(-0.933281 0.0281532 0)
(-0.96468 0.0279685 0)
(-0.996153 0.0278137 0)
(-1.02777 0.0276965 0)
(-1.05955 0.0276052 0)
(-1.09151 0.0275264 1.02936e-19)
(-1.12365 0.0274541 1.00657e-19)
(-1.15598 0.0273842 9.84823e-20)
(-1.1885 0.0273142 0)
(-1.22121 0.0272419 -9.44214e-20)
(-1.2541 0.0271655 0)
(-1.28716 0.0270836 9.07036e-20)
(-1.32039 0.0269949 8.89603e-20)
(-1.35378 0.0268983 0)
(-1.38732 0.0267926 0)
(-1.42099 0.026677 0)
(-1.45478 0.0265506 8.26544e-20)
(-1.48868 0.0264125 0)
(-1.52267 0.0262621 0)
(-1.55673 0.0260986 0)
(-1.59084 0.0259215 0)
(-1.62499 0.0257302 0)
(-1.65914 0.025524 0)
(-1.69328 0.0253026 0)
(-1.72739 0.0250654 0)
(-1.76143 0.0248119 -7.14504e-20)
(-1.79539 0.0245418 0)
(-1.82923 0.0242547 0)
(-1.86292 0.02395 6.83778e-20)
(-1.89644 0.0236273 6.74084e-20)
(-1.92976 0.0232863 0)
(-1.96284 0.0229263 -6.55402e-20)
(-1.99565 0.0225471 6.4638e-20)
(-2.02815 0.022148 0)
(-2.06031 0.0217284 -6.28888e-20)
(-2.09208 0.0212879 0)
(-2.12344 0.0208258 0)
(-2.15433 0.0203415 6.03791e-20)
(-2.18471 0.0198343 0)
(-2.21453 0.0193034 -5.87642e-20)
(-2.24376 0.0187482 0)
(-2.27233 0.018168 5.71823e-20)
(-2.30021 0.0175621 5.64001e-20)
(-2.32732 0.0169299 5.56218e-20)
(-2.35362 0.0162708 1.09692e-19)
(-2.37905 0.0155842 -1.08143e-19)
(-2.40355 0.01487 0)
(-2.42705 0.0141278 0)
(-2.4495 0.0133576 0)
(-2.47084 0.0125598 -1.01911e-19)
(-2.49098 0.0117348 -1.0033e-19)
(-2.50988 0.0108833 9.87338e-20)
(-2.52747 0.0100063 0)
(-2.54368 0.00910472 -9.54829e-20)
(-2.55845 0.00817932 -9.38212e-20)
(-2.57173 0.00722998 -9.21307e-20)
(-2.58344 0.00625607 0)
(-2.59353 0.00525804 0)
(-2.60195 0.00423836 0)
(-2.60865 0.0032009 -8.50298e-20)
(-2.61356 0.00214934 0)
(-2.61664 0.00108673 0)
(-2.61785 2.41231e-05 7.9189e-20)
(-2.61719 -0.00103488 0)
(-2.61461 -0.00209677 0)
(-2.61011 -0.00316184 7.27642e-20)
(-2.60364 -0.00423013 0)
(-2.59521 -0.00530163 0)
(-2.58477 -0.0063762 -6.57155e-20)
(-2.57231 -0.00745365 -6.32072e-20)
(-2.55782 -0.00853369 0)
(-2.54128 -0.00961592 5.79244e-20)
(-2.52268 -0.0106998 0)
(-2.502 -0.0117848 -5.22518e-20)
(-2.47923 -0.01287 0)
(-2.45438 -0.0139544 -4.61445e-20)
(-2.42744 -0.0150371 -4.29125e-20)
(-2.39841 -0.0161166 0)
(-2.3673 -0.0171917 0)
(-2.33413 -0.0182609 0)
(-2.29891 -0.0193227 0)
(-2.26167 -0.0203757 0)
(-2.22242 -0.0214183 0)
(-2.18121 -0.0224486 0)
(-2.13806 -0.0234649 -1.18402e-20)
(-2.09303 -0.0244649 7.18266e-21)
(-2.04616 -0.0254464 0)
(-1.9975 -0.0264068 0)
(-1.94712 -0.027344 0)
(-1.89508 -0.0282559 0)
(-1.84145 -0.0291403 -3.87019e-20)
(-1.78631 -0.0299949 0)
(-1.72974 -0.030817 6.33812e-20)
(-1.67182 -0.0316037 -7.65614e-20)
(-1.61265 -0.0323527 0)
(-1.55232 -0.0330621 0)
(-1.49092 -0.0337303 0)
(-1.42857 -0.0343545 1.35565e-19)
(-1.36536 -0.0349318 1.5205e-19)
(-1.3014 -0.0354604 0)
(-1.23681 -0.0359403 1.87356e-19)
(-1.17168 -0.0363695 2.06261e-19)
(-1.10614 -0.0367445 -2.26062e-19)
(-1.04029 -0.0370651 0)
(-0.974245 -0.0373347 0)
(-0.908108 -0.0375501 -2.91349e-19)
(-0.841993 -0.0377066 0)
(-0.776005 -0.0378138 0)
(-0.710235 -0.0378695 0)
(-0.644792 -0.0378642 0)
(-0.57977 -0.0378158 4.23585e-19)
(-0.515253 -0.0377185 4.54254e-19)
(-0.451317 -0.0375721 0)
(-0.388053 -0.0373892 5.20626e-19)
(-0.325511 -0.0371569 0)
(-0.263751 -0.0368983 0)
(-0.202967 -0.0365888 6.34765e-19)
(-0.142775 -0.0362169 0)
(-0.0838914 -0.0358199 7.22557e-19)
(-0.0263799 -0.035449 0)
(0.0321774 -0.0344891 0)
(0.0876113 -0.0329127 7.70449e-19)
(0.14193 -0.031333 0)
(0.194759 -0.0298235 7.39175e-19)
(0.24608 -0.0284077 0)
(0.295961 -0.0270918 0)
(0.344505 -0.025868 0)
(0.391799 -0.0247219 -6.90948e-19)
(0.43792 -0.0236445 0)
(0.482937 -0.0226272 6.71333e-19)
(0.526905 -0.0216552 0)
(0.569858 -0.0207146 0)
(0.611809 -0.0197863 0)
(0.652711 -0.0188366 0)
(0.692398 -0.0177996 0)
(0.730447 -0.0165422 0)
(0.766052 -0.0147797 0)
(0.796503 -0.0118178 -1.23123e-18)
(0.820251 -0.00644614 0)
(0.803352 0.0088293 0)
(0.0028993 -0.032656 1.8948e-18)
(0.00462322 -0.0261073 -1.13726e-18)
(0.000577142 -0.0101076 0)
(-0.00786574 0.00687572 3.909e-19)
(-0.0188994 0.0217917 0)
(-0.0323313 0.0340877 1.51295e-19)
(-0.0477896 0.0438131 -2.81433e-19)
(-0.0650987 0.0511876 -2.64329e-19)
(-0.0840123 0.0566901 0)
(-0.104403 0.0609736 -2.34329e-19)
(-0.126069 0.0644541 -1.10344e-19)
(-0.148811 0.0673691 0)
(-0.172462 0.0698378 0)
(-0.196888 0.0719191 0)
(-0.221978 0.0736483 0)
(-0.247636 0.075054 -8.25224e-20)
(-0.273782 0.0761649 0)
(-0.300342 0.0770109 1.48497e-19)
(-0.327253 0.0776226 0)
(-0.354458 0.0780303 0)
(-0.38191 0.078263 -1.28701e-19)
(-0.409568 0.0783483 0)
(-0.437397 0.0783112 1.18055e-19)
(-0.465369 0.0781744 -5.67392e-20)
(-0.493464 0.0779581 5.45669e-20)
(-0.521663 0.0776799 -5.25562e-20)
(-0.549955 0.077355 -5.06915e-20)
(-0.578331 0.0769965 0)
(-0.606786 0.0766149 0)
(-0.635318 0.0762192 4.58393e-20)
(-0.663928 0.0758163 -4.42968e-20)
(-0.692619 0.0754119 0)
(-0.721396 0.0750103 0)
(-0.750265 0.074615 4.07153e-20)
(-0.779234 0.0742283 0)
(-0.80831 0.0738515 0)
(-0.8375 0.0734849 -3.76175e-20)
(-0.866813 0.0731278 0)
(-0.896261 0.0727797 3.56824e-20)
(-0.925854 0.072442 -7.00026e-20)
(-0.955605 0.0721191 0)
(-0.985524 0.071819 0)
(-1.01561 0.0715539 -1.30755e-19)
(-1.04587 0.0713272 -1.28039e-19)
(-1.0763 0.0711284 -1.25438e-19)
(-1.10688 0.0709457 6.13198e-20)
(-1.13763 0.0707701 -6.043e-20)
(-1.16853 0.0705949 -1.77535e-19)
(-1.19959 0.0704145 1.16043e-19)
(-1.23081 0.0702244 5.71121e-20)
(-1.26217 0.0700209 0)
(-1.29367 0.0698004 -5.50984e-20)
(-1.3253 0.0695601 5.38331e-20)
(-1.35706 0.0692972 0)
(-1.38892 0.0690091 0)
(-1.42089 0.0686937 0)
(-1.45294 0.0683489 -5.0635e-20)
(-1.48506 0.0679726 0)
(-1.51723 0.0675632 9.7776e-20)
(-1.54944 0.067119 0)
(-1.58166 0.0666385 9.47779e-20)
(-1.61389 0.0661204 0)
(-1.64609 0.0655632 -9.19451e-20)
(-1.67824 0.0649659 0)
(-1.71033 0.0643273 8.92589e-20)
(-1.74232 0.0636463 -4.38347e-20)
(-1.77419 0.0629219 0)
(-1.80593 0.062153 -8.54661e-20)
(-1.83749 0.0613387 -4.22718e-20)
(-1.86885 0.0604779 -4.16775e-20)
(-1.89998 0.0595695 0)
(-1.93085 0.0586124 -4.02449e-20)
(-1.96143 0.0576056 -3.99565e-20)
(-1.99168 0.0565476 0)
(-2.02157 0.0554373 3.8852e-20)
(-2.05106 0.0542733 -7.6363e-20)
(-2.08011 0.0530539 0)
(-2.10868 0.0517778 -3.72417e-20)
(-2.13674 0.0504432 0)
(-2.16423 0.0490485 1.08335e-19)
(-2.19111 0.0475921 0)
(-2.21732 0.0460722 -1.0522e-19)
(-2.24283 0.0444873 -3.46259e-20)
(-2.26758 0.0428359 3.39038e-20)
(-2.2915 0.0411168 6.67825e-20)
(-2.31456 0.0393289 -6.57551e-20)
(-2.33667 0.0374714 0)
(-2.35779 0.035544 0)
(-2.37786 0.0335469 0)
(-2.3968 0.0314809 1.85338e-19)
(-2.41456 0.0293476 6.07885e-20)
(-2.43107 0.0271494 -5.96903e-20)
(-2.44627 0.0248892 0)
(-2.46009 0.0225705 -5.7263e-20)
(-2.47246 0.0201966 5.63053e-20)
(-2.48334 0.0177703 5.51416e-20)
(-2.49265 0.0152948 0)
(-2.50035 0.012775 0)
(-2.50637 0.0102176 0)
(-2.51067 0.00762917 5.02845e-20)
(-2.51319 0.00501019 0)
(-2.51385 0.0023739 -9.5418e-20)
(-2.51269 -0.000254949 -1.39043e-19)
(-2.50968 -0.00286959 8.99687e-20)
(-2.50477 -0.00547296 0)
(-2.49795 -0.00806474 4.2219e-20)
(-2.4892 -0.0106437 0)
(-2.47849 -0.0132084 7.82629e-20)
(-2.4658 -0.0157568 -3.77148e-20)
(-2.45112 -0.0182869 -3.61357e-20)
(-2.43442 -0.0207963 0)
(-2.41569 -0.0232823 -9.77872e-20)
(-2.39492 -0.025742 6.18704e-20)
(-2.3721 -0.0281721 2.89354e-20)
(-2.34721 -0.030569 0)
(-2.32026 -0.0329289 2.52148e-20)
(-2.29125 -0.0352474 7.04144e-20)
(-2.26018 -0.0375201 0)
(-2.22705 -0.0397422 3.91655e-20)
(-2.19188 -0.041909 3.50222e-20)
(-2.15469 -0.0440158 3.07699e-20)
(-2.11551 -0.046058 0)
(-2.07435 -0.0480311 0)
(-2.03126 -0.0499307 0)
(-1.98627 -0.0517523 -6.76194e-21)
(-1.93942 -0.0534911 -3.4326e-21)
(-1.89077 -0.0551423 0)
(-1.84038 -0.0567009 2.21175e-21)
(-1.7883 -0.0581626 7.39934e-21)
(-1.7346 -0.0595238 0)
(-1.67937 -0.0607816 1.92737e-20)
(-1.62266 -0.0619336 4.73745e-20)
(-1.56458 -0.0629762 -3.05685e-20)
(-1.5052 -0.063906 -3.38974e-20)
(-1.44462 -0.0647203 0)
(-1.38295 -0.0654187 0)
(-1.32028 -0.0660018 0)
(-1.25671 -0.0664686 -6.08178e-20)
(-1.19236 -0.0668166 6.43844e-20)
(-1.12734 -0.067046 1.44474e-19)
(-1.06176 -0.0671614 -8.02362e-20)
(-0.995721 -0.0671649 8.3951e-20)
(-0.929352 -0.0670533 9.36433e-20)
(-0.862769 -0.0668293 0)
(-0.796081 -0.0665057 0)
(-0.729395 -0.0660826 -1.11284e-19)
(-0.662827 -0.0655523 0)
(-0.596487 -0.0649372 0)
(-0.530469 -0.0642409 2.68107e-19)
(-0.464878 -0.0634479 0)
(-0.399808 -0.0625917 1.46914e-19)
(-0.335356 -0.0616681 -1.5721e-19)
(-0.271574 -0.0606802 0)
(-0.208586 -0.059651 1.68735e-19)
(-0.146414 -0.0585582 0)
(-0.0851191 -0.0574331 0)
(-0.0249565 -0.0562735 -1.93457e-19)
(0.0348659 -0.0550511 3.93632e-19)
(0.0928663 -0.0538085 -2.00404e-19)
(0.149571 -0.0526378 0)
(0.20529 -0.0511188 0)
(0.259286 -0.0491603 2.04495e-19)
(0.312052 -0.047214 0)
(0.363597 -0.0453392 2.08863e-19)
(0.413916 -0.0435648 0)
(0.463036 -0.0419028 0)
(0.511011 -0.0403497 0)
(0.557906 -0.0388956 2.17742e-19)
(0.603787 -0.037531 0)
(0.648725 -0.0362469 -2.20336e-19)
(0.692778 -0.0350303 0)
(0.73599 -0.0338613 0)
(0.778382 -0.0327068 4.45286e-19)
(0.819914 -0.0315043 -4.46953e-19)
(0.860449 -0.030132 0)
(0.899654 -0.0283525 0)
(0.936965 -0.0256717 0)
(0.970576 -0.0210246 1.36436e-18)
(1.00108 -0.0122109 0)
(1.0118 0.00692888 -9.34078e-19)
(-0.00320184 -0.03017 -9.02432e-22)
(-0.0111777 -0.00976781 1.05597e-18)
(-0.0226553 0.0134361 0)
(-0.0360303 0.0335389 -4.68018e-19)
(-0.0507308 0.0507721 0)
(-0.0664135 0.065371 0)
(-0.0831053 0.0775 5.95716e-23)
(-0.100888 0.0873855 1.57449e-19)
(-0.119783 0.095359 1.49182e-19)
(-0.13974 0.101818 1.41718e-19)
(-0.160641 0.107103 0)
(-0.182351 0.111464 0)
(-0.204741 0.11507 -1.21727e-19)
(-0.227701 0.118031 -2.31736e-19)
(-0.25114 0.120431 2.20801e-19)
(-0.274985 0.122331 0)
(-0.299175 0.12379 2.01175e-19)
(-0.323659 0.124859 -9.62357e-20)
(-0.348395 0.125589 0)
(-0.373348 0.126026 1.76744e-19)
(-0.398488 0.126214 8.49102e-20)
(-0.42379 0.126194 -1.63262e-19)
(-0.449234 0.126003 -7.86523e-20)
(-0.474805 0.125675 0)
(-0.500491 0.125239 1.46389e-19)
(-0.526284 0.12472 1.4151e-19)
(-0.552178 0.124142 0)
(-0.57817 0.123522 1.32683e-19)
(-0.60426 0.122878 0)
(-0.630449 0.12222 1.24926e-19)
(-0.65674 0.121561 6.07522e-20)
(-0.683137 0.120908 0)
(-0.709647 0.120268 0)
(-0.736274 0.119645 0)
(-0.763028 0.119043 0)
(-0.789914 0.118465 0)
(-0.816941 0.117911 0)
(-0.844115 0.117381 1.01572e-19)
(-0.871446 0.116877 -1.49006e-19)
(-0.898939 0.116397 0)
(-0.926603 0.115944 0)
(-0.954439 0.115519 0)
(-0.982448 0.115122 1.5913e-22)
(-1.01063 0.114753 8.9484e-20)
(-1.03897 0.114402 1.75301e-19)
(-1.06747 0.114063 -1.71929e-19)
(-1.09612 0.113725 -8.42557e-20)
(-1.12493 0.113383 8.28612e-20)
(-1.15389 0.113029 -1.73698e-22)
(-1.18298 0.112657 7.97182e-20)
(-1.21222 0.112262 0)
(-1.24158 0.111838 7.69428e-20)
(-1.27106 0.111382 -1.78872e-22)
(-1.30065 0.110889 0)
(-1.33034 0.110355 0)
(-1.36012 0.109777 -7.18977e-20)
(-1.38996 0.109151 0)
(-1.41987 0.108475 0)
(-1.44982 0.107746 6.83083e-20)
(-1.47979 0.106962 1.34831e-19)
(-1.50977 0.106119 -6.65501e-20)
(-1.53973 0.105217 0)
(-1.56967 0.104252 6.45348e-20)
(-1.59955 0.103224 0)
(-1.62936 0.10213 6.2258e-20)
(-1.65907 0.100969 6.16844e-20)
(-1.68866 0.0997392 -1.21199e-19)
(-1.71811 0.0984392 -5.95361e-20)
(-1.74738 0.0970675 0)
(-1.77646 0.0956223 1.15959e-19)
(-1.80531 0.0941021 0)
(-1.8339 0.0925051 1.69087e-19)
(-1.86221 0.0908296 1.1098e-19)
(-1.8902 0.0890734 1.09367e-19)
(-1.91784 0.0872347 -1.07774e-19)
(-1.94509 0.085311 1.59452e-19)
(-1.97192 0.0832999 0)
(-1.99829 0.081199 0)
(-2.02416 0.0790054 -1.01556e-19)
(-2.04949 0.0767165 -1.50182e-19)
(-2.07423 0.0743295 0)
(-2.09834 0.0718415 4.8625e-20)
(-2.12177 0.06925 0)
(-2.14446 0.0665524 -1.41068e-19)
(-2.16638 0.0637466 -2.24054e-22)
(-2.18745 0.0608308 2.11817e-22)
(-2.20762 0.0578037 8.94094e-20)
(-2.22683 0.0546647 0)
(-2.24503 0.0514141 -8.63357e-20)
(-2.26214 0.0480532 -1.56363e-22)
(-2.27812 0.0445842 0)
(-2.29288 0.0410106 0)
(-2.30637 0.0373372 0)
(-2.31852 0.0335693 7.85062e-20)
(-2.32928 0.0297128 0)
(-2.33857 0.0257735 0)
(-2.34633 0.0217579 0)
(-2.35253 0.0176743 0)
(-2.35709 0.0135325 0)
(-2.35998 0.00934288 6.82115e-20)
(-2.3611 0.00511456 0)
(-2.36048 0.000879052 6.44374e-20)
(-2.35808 -0.0033354 6.24916e-20)
(-2.35387 -0.00752862 -6.05085e-20)
(-2.34782 -0.0117007 0)
(-2.33991 -0.0158505 -5.64208e-20)
(-2.33013 -0.0199758 0)
(-2.31844 -0.0240738 -5.21616e-20)
(-2.30483 -0.0281413 4.99649e-20)
(-2.28928 -0.0321746 1.43628e-19)
(-2.27178 -0.0361696 0)
(-2.25229 -0.0401216 1.29829e-19)
(-2.23083 -0.0440257 4.13005e-20)
(-2.20736 -0.0478761 0)
(-2.18189 -0.051667 7.22429e-20)
(-2.15441 -0.0553917 6.7208e-20)
(-2.12492 -0.059043 -9.27136e-20)
(-2.09342 -0.0626134 0)
(-2.05993 -0.0660949 -2.53002e-20)
(-2.02446 -0.0694794 -2.25478e-20)
(-1.98702 -0.0727591 -6.01931e-20)
(-1.94763 -0.0759263 0)
(-1.90634 -0.0789736 0)
(-1.86317 -0.0818936 0)
(-1.81815 -0.0846792 -9.14012e-21)
(-1.77134 -0.0873226 0)
(-1.72279 -0.0898157 0)
(-1.67255 -0.0921504 -1.38147e-21)
(-1.62068 -0.0943196 -4.6022e-21)
(-1.56726 -0.0963176 0)
(-1.51235 -0.0981402 0)
(-1.45604 -0.0997834 -2.90786e-20)
(-1.39842 -0.101242 0)
(-1.33956 -0.102511 4.27454e-20)
(-1.27957 -0.103585 4.81036e-20)
(-1.21854 -0.104465 0)
(-1.15659 -0.105153 0)
(-1.0938 -0.105647 -6.92046e-20)
(-1.03029 -0.105944 -1.71575e-21)
(-0.966172 -0.106045 -1.74255e-21)
(-0.901561 -0.105958 0)
(-0.836565 -0.105688 -1.97755e-19)
(-0.771297 -0.10523 0)
(-0.705877 -0.10459 0)
(-0.640414 -0.103787 0)
(-0.575013 -0.102826 1.28899e-19)
(-0.509788 -0.101695 0)
(-0.444842 -0.100426 -2.83074e-19)
(-0.380278 -0.0990323 -1.50589e-19)
(-0.316186 -0.0974899 0)
(-0.252651 -0.0958472 -1.64849e-19)
(-0.189797 -0.094105 0)
(-0.127613 -0.0922591 0)
(-0.066295 -0.0903513 -5.53739e-19)
(-0.00577216 -0.0883616 3.80729e-19)
(0.0538822 -0.0863 0)
(0.112212 -0.0842168 3.98717e-19)
(0.169566 -0.081996 -2.04814e-19)
(0.225566 -0.0796545 0)
(0.280334 -0.0773673 0)
(0.333942 -0.0749807 0)
(0.38628 -0.0724381 -6.53461e-19)
(0.437508 -0.0699105 0)
(0.487633 -0.067462 -2.25229e-19)
(0.536658 -0.0651211 0)
(0.584605 -0.0629027 0)
(0.631519 -0.0608099 0)
(0.677455 -0.0588383 0)
(0.722478 -0.0569819 0)
(0.766656 -0.0552314 0)
(0.810052 -0.0535703 -4.84301e-19)
(0.852713 -0.0519703 0)
(0.894667 -0.0503826 -2.46873e-19)
(0.935888 -0.0487172 7.44182e-19)
(0.976275 -0.0468057 0)
(1.01558 -0.044334 0)
(1.05348 -0.0407008 -5.0576e-19)
(1.08881 -0.0347262 -5.11073e-19)
(1.12358 -0.0244009 5.15717e-19)
(1.14791 -0.00484845 5.25558e-19)
(-0.00885363 -0.0100056 -3.02955e-18)
(-0.022132 0.0202317 -1.22595e-18)
(-0.036553 0.0450431 -4.71438e-19)
(-0.0527294 0.0660853 -1.75881e-19)
(-0.0695431 0.0842932 0)
(-0.0866316 0.100022 2.66703e-19)
(-0.104115 0.113442 -1.23399e-19)
(-0.122137 0.124717 0)
(-0.140773 0.134075 -1.10006e-19)
(-0.160036 0.141791 0)
(-0.17989 0.148137 1.99443e-19)
(-0.200273 0.153342 0)
(-0.221115 0.157591 9.08213e-20)
(-0.242349 0.161025 1.73571e-19)
(-0.263916 0.163757 -1.66017e-19)
(-0.28577 0.165878 0)
(-0.307872 0.167467 -1.52379e-19)
(-0.33019 0.168593 0)
(-0.352698 0.169321 0)
(-0.375377 0.169709 -1.35206e-19)
(-0.398209 0.169811 0)
(-0.421183 0.169675 -1.281e-23)
(-0.444288 0.169346 0)
(-0.467517 0.168862 0)
(-0.490864 0.168259 3.63668e-25)
(-0.514328 0.167567 -1.09939e-19)
(-0.537906 0.166812 -1.06609e-19)
(-0.561599 0.166016 -1.03496e-19)
(-0.585409 0.165198 0)
(-0.609338 0.164372 -1.95554e-19)
(-0.63339 0.163552 0)
(-0.65757 0.162746 -9.26701e-20)
(-0.681883 0.161962 0)
(-0.706334 0.161204 0)
(-0.730929 0.160477 8.59881e-20)
(-0.755673 0.159783 0)
(-0.780573 0.159122 -8.20641e-20)
(-0.805633 0.158493 -5.56817e-23)
(-0.830859 0.157897 1.57045e-19)
(-0.856254 0.157331 -1.53648e-19)
(-0.881821 0.156794 0)
(-0.90756 0.156283 0)
(-0.93347 0.155797 -7.21456e-20)
(-0.959547 0.155329 0)
(-0.985786 0.154872 -6.95105e-20)
(-1.01218 0.154418 6.81968e-20)
(-1.03874 0.153959 6.69291e-20)
(-1.06544 0.153487 0)
(-1.09228 0.152994 -6.4521e-20)
(-1.11926 0.152474 -6.33758e-20)