/*--------------------------------*- C++ -*----------------------------------*\
| =========                 |                                                 |
| \\      /  F ield         | OpenFOAM: The Open Source CFD Toolbox           |
|  \\    /   O peration     | Version:  plus                                  |
|   \\  /    A nd           | Website:  www.openfoam.com                      |
|    \\/     M anipulation  |                                                 |
\*---------------------------------------------------------------------------*/
FoamFile
{
    version     2.0;
    format      ascii;
    class       volScalarField;
    location    "150";
    object      epsilon;
}
// * * * * * * * * * * * * * * * * * * * * * * * * * * * * * * * * * * * * * //

dimensions      [0 2 -3 0 0 0 0];


internalField   nonuniform List<scalar> 
12225
(
1643.7
2838.78
3793.52
4451.86
4862.39
5092.58
5200.52
5229.43
5209.24
5159.84
5094.06
5020.08
4943.02
4866.04
4791.01
4718.95
4649.67
4590.25
169.179
319.165
440.958
539.337
612.012
661.607
693.544
713.115
724.496
730.696
733.783
735.132
735.626
735.829
736.117
736.944
740.56
746.23
38.9334
67.8429
93.1279
114.932
133.011
147.305
158.198
166.267
172.1
176.226
179.091
181.049
182.379
183.289
183.943
184.495
185.144
185.583
20.1657
27.6331
35.0375
41.8928
48.0063
53.2826
57.7249
61.3965
64.3861
66.7898
68.7011
70.2056
71.3788
72.2856
72.9813
73.5135
73.9169
74.1571
16.1468
18.4423
21.0406
23.6448
26.1165
28.3817
30.4081
32.1908
33.7396
35.0716
36.2079
37.1703
37.9802
38.6576
39.2206
39.6852
40.0625
40.3484
15.0836
15.7459
16.6607
17.6889
18.7435
19.7706
20.7389
21.6322
22.444
23.1736
23.8237
24.3987
24.9044
25.3467
25.7315
26.0643
26.3492
26.5846
14.791
14.8903
15.1342
15.4782
15.8818
16.3127
16.7481
17.1728
17.5773
17.956
18.3063
18.627
18.9184
19.1815
19.4176
19.6281
19.8142
19.9741
14.713
14.6254
14.6056
14.6468
14.7366
14.8613
15.0086
15.1683
15.3329
15.4968
15.6563
15.8086
15.9522
16.0861
16.2099
16.3232
16.4259
16.5162
14.6933
14.5488
14.4344
14.3516
14.2987
14.272
14.2668
14.2782
14.302
14.3345
14.3727
14.4142
14.4572
14.5002
14.5421
14.5823
14.62
14.6537
14.6884
14.5283
14.3837
14.256
14.1454
14.0515
13.973
13.9083
13.8555
13.8128
13.7785
13.751
13.7291
13.7115
13.6973
13.6856
13.6758
13.667
14.6872
14.5231
14.3699
14.2278
14.0969
13.977
13.8679
13.7689
13.6794
13.5985
13.5255
13.4596
13.3999
13.3458
13.2965
13.2515
13.2102
13.1723
14.6869
14.5218
14.3665
14.2206
14.0838
13.9558
13.8363
13.725
13.6215
13.5252
13.4358
13.3527
13.2755
13.2038
13.137
13.0747
13.0167
12.9628
14.6867
14.5213
14.3653
14.2183
14.0796
13.9488
13.8256
13.7096
13.6003
13.4974
13.4007
13.3096
13.2239
13.1433
13.0674
12.9959
12.9286
12.8657
14.6866
14.521
14.3648
14.2174
14.0781
13.9464
13.822
13.7043
13.5929
13.4876
13.3879
13.2935
13.2042
13.1196
13.0394
12.9634
12.8915
12.8239
14.6865
14.5208
14.3645
14.2169
14.0774
13.9455
13.8206
13.7025
13.5905
13.4844
13.3838
13.2884
13.1978
13.1119
13.0302
12.9526
12.8789
12.8096
14.6864
14.5207
14.3643
14.2165
14.0769
13.9449
13.8199
13.7016
13.5894
13.4831
13.3822
13.2865
13.1956
13.1092
13.0271
12.949
12.8748
12.8049
14.6863
14.5206
14.3641
14.2163
14.0766
13.9445
13.8194
13.7009
13.5887
13.4823
13.3813
13.2854
13.1943
13.1078
13.0256
12.9473
12.8729
12.8029
14.6863
14.5205
14.364
14.2161
14.0764
13.9442
13.819
13.7005
13.5882
13.4817
13.3806
13.2846
13.1935
13.1069
13.0245
12.9462
12.8717
12.8016
14.6863
14.5205
14.364
14.2161
14.0763
13.9441
13.8189
13.7003
13.588
13.4814
13.3803
13.2843
13.1931
13.1064
13.024
12.9456
12.8711
12.801
14.6863
14.5205
14.364
14.2162
14.0764
13.9442
13.8191
13.7005
13.5882
13.4817
13.3806
13.2846
13.1934
13.1068
13.0245
12.9462
12.8717
12.8017
14.6864
14.5206
14.3642
14.2164
14.0768
13.9447
13.8197
13.7014
13.5893
13.4831
13.3824
13.2869
13.1963
13.1103
13.0286
12.9511
12.8775
12.8083
14.6865
14.5209
14.3647
14.2173
14.0783
13.9472
13.8235
13.707
13.597
13.4934
13.3957
13.3037
13.2168
13.1349
13.0577
12.9847
12.916
12.8518
14.6868
14.522
14.3678
14.2239
14.0903
13.9665
13.8524
13.7473
13.6507
13.562
13.4807
13.406
13.3374
13.2743
13.2162
13.1626
13.1131
13.068
14.6891
14.5322
14.3938
14.2747
14.1749
14.0931
14.0277
13.9765
13.9375
13.9086
13.888
13.8741
13.8655
13.861
13.8598
13.8609
13.8639
13.8684
14.7097
14.6115
14.5712
14.5832
14.6384
14.7266
14.8384
14.9655
15.1015
15.2416
15.3818
15.5197
15.6531
15.7809
15.9022
16.0165
16.1236
16.2237
14.8667
15.1128
15.5318
16.0582
16.6432
17.251
17.8568
18.4446
19.0048
19.5317
20.0225
20.4762
20.8932
21.2747
21.6223
21.9379
22.2236
22.4817
15.8907
17.7958
19.9875
22.2254
24.4048
26.4665
28.3797
30.1324
31.7226
33.1541
34.4342
35.5724
36.5796
37.4668
38.2453
38.9255
39.5172
40.0307
22.4261
32.2529
41.45
49.9327
57.7368
64.799
71.0914
76.6274
81.4423
85.5852
89.115
92.0955
94.5919
96.6665
98.3771
99.7736
100.895
101.764
73.444
128.65
175.849
218.783
257.773
292.048
321.346
345.834
365.906
382.073
394.891
404.903
412.61
418.45
422.792
425.933
428.071
429.234
819.185
1245.04
1627.87
1947.98
2235.57
2483.71
2690.28
2856.65
2986.35
3083.99
3154.43
3202.37
3232.03
3247.09
3250.69
3245.41
3233.39
3216.22
0.947013
0.840834
1.18147
1.51057
1.87863
2.2854
2.8124
3.42186
4.12475
4.91573
5.78536
6.72604
7.73223
8.79981
9.92557
11.1069
12.3419
13.6288
14.9665
16.3545
17.7925
19.2807
20.8199
22.4116
24.0576
25.7607
27.5245
29.3538
31.255
33.2362
35.3085
37.4863
39.7889
42.2055
44.7228
47.3445
50.0756
52.9213
55.8867
58.9773
62.1983
65.5551
69.0532
72.698
76.4948
80.4491
84.5661
88.8511
93.3092
97.9454
102.765
107.771
112.97
118.365
123.961
129.761
135.768
141.985
148.416
155.062
161.926
169.009
176.311
183.834
191.576
199.539
207.72
216.117
224.729
233.552
242.584
251.818
261.252
270.88
280.695
290.691
300.862
311.199
321.695
332.342
343.131
354.052
365.097
376.255
387.517
398.874
410.314
421.827
433.403
445.032
456.702
468.404
480.127
491.861
503.596
515.323
527.032
538.714
550.36
561.961
573.511
585.004
596.436
607.811
619.137
630.435
641.739
653.109
664.647
676.168
687.62
698.999
710.303
721.523
732.65
743.671
754.574
765.343
775.96
786.404
796.654
806.685
816.469
825.977
835.176
844.029
852.499
860.543
868.118
875.174
881.66
887.52
892.694
897.121
900.735
903.466
905.244
905.993
905.636
904.093
901.281
897.117
891.529
884.445
875.838
865.706
853.707
839.989
825.849
809.942
791.187
779.76
772.277
764.236
755.135
744.984
733.889
721.982
709.404
696.291
682.78
668.998
655.063
641.08
627.145
613.34
599.731
586.376
573.315
560.577
548.175
536.108
524.348
512.84
501.475
490.047
478.152
464.836
450.558
431.277
2.82319
1.52698
1.46509
1.63676
1.90342
2.24045
2.64331
3.10362
3.61255
4.16112
4.742
5.35009
5.98212
6.63601
7.31051
8.0049
8.71892
9.45266
10.2065
10.9812
11.7776
12.5969
13.4405
14.31
15.2072
16.1343
17.0935
18.0873
19.1183
20.1896
21.304
22.464
23.6718
24.9275
26.2319
27.5866
28.9936
30.455
31.9729
33.5494
35.1866
36.8866
38.6514
40.4829
42.3832
44.3542
46.3976
48.5153
50.7091
52.9805
55.3311
57.7624
60.2757
62.8723
65.5534
68.3199
71.1727
74.1125
77.14
80.2556
83.4595
86.7518
90.1324
93.601
97.1571
100.8
104.529
108.342
112.239
116.218
120.277
124.414
128.626
132.912
137.268
141.692
146.18
150.729
155.335
159.995
164.705
169.461
174.258
179.092
183.959
188.854
193.772
198.708
203.659
208.618
213.582
218.545
223.504
228.454
233.391
238.31
243.209
248.083
252.93
257.748
262.534
267.288
272.012
276.709
281.385
286.047
290.708
295.382
300.103
304.851
309.572
314.263
318.923
323.549
328.141
332.696
337.212
341.685
346.112
350.488
354.806
359.061
363.245
367.349
371.363
375.277
379.077
382.749
386.277
389.645
392.833
395.819
398.581
401.093
403.327
405.254
406.841
408.055
408.86
409.216
409.084
408.423
407.194
405.359
402.885
399.742
395.851
391.191
385.921
379.821
372.871
366.654
361.106
355.381
349.297
342.85
336.084
329.056
321.823
314.447
306.983
299.485
292.001
284.574
277.242
270.038
262.989
256.118
249.442
242.974
236.722
230.689
224.877
219.279
213.883
208.671
203.618
198.73
195.002
194.489
5.14878
2.55399
2.24067
2.29554
2.49435
2.78392
3.14435
3.56256
4.02689
4.52701
5.05478
5.60448
6.17249
6.75676
7.35631
7.97088
8.60073
9.24642
9.90879
10.5889
11.2879
12.0071
12.748
13.512
14.3009
15.1162
15.9596
16.833
17.7381
18.6766
19.6501
20.6601
21.708
22.7949
23.9222
25.0913
26.3039
27.5616
28.8659
30.2185
31.6209
33.0747
34.5815
36.1427
37.7599
39.4345
41.1679
42.9615
44.8166
46.7345
48.7163
50.7633
52.8765
55.0569
57.3054
59.6229
62.0101
64.4677
66.9963
69.5961
72.2677
75.011
77.8263
80.7133
83.6719
86.7015
89.8017
92.9717
96.2105
99.517
102.89
106.328
109.829
113.391
117.012
120.689
124.421
128.204
132.036
135.912
139.83
143.786
147.777
151.798
155.845
159.914
164.001
168.102
172.213
176.328
180.444
184.556
188.661
192.753
196.83
200.888
204.924
208.933
212.915
216.866
220.786
224.673
228.528
232.354
236.151
239.925
243.681
247.424
251.158
254.863
258.528
262.152
265.734
269.273
272.77
276.224
279.634
282.998
286.315
289.582
292.797
295.955
299.053
302.084
305.043
307.922
310.713
313.405
315.987
318.447
320.77
322.94
324.938
326.744
328.337
329.691
330.779
331.575
332.045
332.159
331.882
331.181
330.019
328.363
326.175
323.425
320.052
316.035
311.475
306.418
300.928
295.464
290.078
284.54
278.771
272.772
266.575
260.224
253.763
247.239
240.695
234.173
227.708
221.333
215.077
208.962
203.01
197.235
191.651
186.266
181.086
176.115
171.354
166.804
162.465
158.342
154.451
150.876
148.128
147.166
7.51665
3.62385
3.03263
2.97923
3.11729
3.36356
3.68724
4.07141
4.50356
4.97348
5.47301
5.99614
6.53874
7.09834
7.67363
8.26418
8.87016
9.49213
10.131
10.7877
11.4635
12.1596
12.8774
13.6184
14.3838
15.1752
15.9941
16.8418
17.7199
18.6297
19.5726
20.5499
21.563
22.6131
23.7017
24.8301
25.9999
27.2125
28.4693
29.772
31.122
32.5207
33.9697
35.4704
37.0242
38.6326
40.297
42.0187
43.7991
45.6395
47.5412
49.5054
51.5333
53.626
55.7846
58.01
60.3033
62.6653
65.0967
67.5982
70.1704
72.8137
75.5285
78.3149
81.173
84.1027
87.1037
90.1756
93.3178
96.5293
99.8093
103.156
106.569
110.046
113.584
117.183
120.838
124.548
128.31
132.12
135.975
139.871
143.804
147.77
151.764
155.783
159.822
163.875
167.939
172.007
176.076
180.141
184.197
188.239
192.263
196.264
200.238
204.183
208.094
211.968
215.803
219.598
223.35
227.061
230.729
234.357
237.946
241.494
244.992
248.434
251.815
255.135
258.394
261.592
264.729
267.805
270.819
273.771
276.659
279.482
282.237
284.923
287.535
290.071
292.525
294.891
297.163
299.332
301.388
303.322
305.12
306.77
308.254
309.555
310.653
311.527
312.151
312.499
312.544
312.255
311.6
310.547
309.06
307.109
304.646
301.648
298.102
294.067
289.581
284.703
279.504
274.148
268.676
263.032
257.195
251.178
245.014
238.742
232.403
226.039
219.688
213.388
207.17
201.062
195.091
189.275
183.633
178.176
172.917
167.861
163.014
158.378
153.956
149.749
145.761
142
138.493
135.317
132.747
131.22
10.7117
4.78206
3.82063
3.63558
3.70563
3.90646
4.19366
4.54539
4.94785
5.39083
5.86645
6.36871
6.8933
7.43739
7.99932
8.57833
9.1743
9.78763
10.419
11.0693
11.7397
12.4312
13.1452
13.883
14.6458
15.4349
16.2518
17.0977
17.974
18.882
19.8229
20.7982
21.8092
22.8572
23.9435
25.0697
26.2372
27.4476
28.7022
30.0026
31.3505
32.7472
34.1944
35.6935
37.2463
38.8542
40.5187
42.2415
44.024
45.8677
47.7742
49.7449
51.7812
53.8845
56.0563
58.2977
60.61
62.9944
65.452
67.9838
70.5908
73.2736
76.0331
78.8698
81.784
84.776
87.846
90.9938
94.219
97.5211
100.899
104.353
107.88
111.48
115.149
118.888
122.691
126.558
130.485
134.467
138.503
142.587
146.715
150.883
155.085
159.317
163.573
167.848
172.137
176.433
180.73
185.024
189.308
193.577
197.825
202.047
206.237
210.391
214.504
218.571
222.589
226.554
230.463
234.314
238.105
241.834
245.501
249.091
252.602
256.029
259.37
262.626
265.796
268.879
271.877
274.788
277.613
280.351
283
285.561
288.03
290.406
292.687
294.87
296.951
298.925
300.786
302.529
304.144
305.624
306.959
308.136
309.141
309.96
310.575
310.966
311.111
310.986
310.565
309.821
308.72
307.234
305.324
302.961
300.109
296.803
293.04
288.852
284.268
279.336
274.111
268.667
263.037
257.217
251.216
245.057
238.776
232.41
226.001
219.588
213.207
206.895
200.681
194.593
188.654
182.883
177.296
171.905
166.72
161.746
156.989
152.45
148.132
144.037
140.169
136.54
133.173
130.128
127.56
125.681
14.055
5.9293
4.56614
4.23832
4.2361
4.39042
4.64179
4.96267
5.33726
5.75498
6.20806
6.69068
7.19854
7.72866
8.27914
8.84896
9.43774
10.0456
10.6731
11.3209
11.9901
12.6815
13.3965
14.1362
14.9017
15.6945
16.5157
17.3666
18.2486
19.1629
20.1108
21.0938
22.1131
23.1702
24.2665
25.4035
26.5828
27.8058
29.0743
30.3897
31.7539
33.1684
34.635
36.1554
37.7314
39.3647
41.0571
42.8104
44.6264
46.5069
48.4537
50.4686
52.5534
54.7097
56.9394
59.2441
61.6255
64.0851
66.6244
69.2449
71.9479
74.7347
77.6063
80.5637
83.6078
86.7392
89.9583
93.2655
96.6607
100.144
103.714
107.371
111.113
114.94
118.848
122.837
126.903
131.044
135.256
139.536
143.879
148.281
152.738
157.243
161.791
166.377
170.993
175.635
180.295
184.966
189.641
194.315
198.979
203.626
208.251
212.845
217.403
221.917
226.381
230.79
235.137
239.416
243.624
247.754
251.805
255.771
259.637
263.397
267.046
270.581
274.002
277.308
280.497
283.571
286.527
289.366
292.088
294.69
297.174
299.536
301.776
303.893
305.884
307.748
309.481
311.08
312.54
313.857
315.025
316.036
316.884
317.559
318.051
318.346
318.432
318.29
317.902
317.249
316.303
315.044
313.435
311.454
309.063
306.266
303.058
299.444
295.431
291.037
286.287
281.214
275.857
270.259
264.446
258.435
252.247
245.913
239.468
232.951
226.403
219.863
213.368
206.952
200.645
194.475
188.463
182.63
176.99
171.555
166.334
161.333
156.557
152.008
147.689
143.602
139.751
136.147
132.811
129.787
127.161
125.04
17.3221
7.01191
5.24614
4.77392
4.69866
4.80676
5.02349
5.31523
5.6638
6.05784
6.4895
6.95304
7.44429
7.96025
8.49892
9.05911
9.64026
10.2423
10.8656
11.5108
12.1786
12.87
13.5861
14.3279
15.0967
15.8937
16.7202
17.5773
18.4664
19.3888
20.3459
21.3391
22.3698
23.4395
24.5497
25.7019
26.8979
28.1393
29.4278
30.7652
32.1534
33.5942
35.0896
36.6415
38.2519
39.9229
41.6566
43.455
45.3203
47.2547
49.2604
51.3395
53.4941
55.7266
58.039
60.4334
62.912
65.4768
68.1298
70.873
73.708
76.6367
79.6607
82.7814
86
89.3178
92.7356
96.254
99.8736
103.594
107.416
111.338
115.36
119.481
123.698
128.009
132.413
136.905
141.483
146.142
150.878
155.686
160.559
165.493
170.481
175.516
180.591
185.699
190.831
195.979
201.136
206.293
211.442
216.574
221.681
226.754
231.785
236.765
241.686
246.539
251.318
256.013
260.618
265.126
269.53
273.819
277.972
281.985
285.854
289.578
293.153
296.58
299.855
302.979
305.95
308.767
311.429
313.935
316.283
318.472
320.501
322.368
324.071
325.61
326.981
328.184
329.214
330.068
330.743
331.234
331.537
331.646
331.554
331.251
330.73
329.975
328.974
327.711
326.161
324.309
322.122
319.601
316.731
313.507
309.926
305.989
301.701
297.074
292.122
286.869
281.342
275.569
269.574
263.378
257.008
250.498
243.883
237.203
230.499
223.809
217.17
210.617
204.179
197.885
191.756
185.812
180.069
174.539
169.23
164.149
159.3
154.688
150.313
146.178
142.29
138.656
135.294
132.234
129.524
127.215
20.3811
8.00231
5.85071
5.23822
5.09137
5.15431
5.33766
5.60181
5.92598
6.29778
6.70906
7.15408
7.62874
8.13011
8.65616
9.20565
9.77792
10.3728
10.9905
11.6315
12.2964
12.9863
13.702
14.4447
15.2155
16.0155
16.8461
17.7086
18.6042
19.5343
20.5004
21.5038
22.5462
23.6291
24.7541
25.9229
27.1374
28.3993
29.7105
31.0731
32.4891
33.9606
35.4898
37.079
38.7305
40.4466
42.2298
44.0825
46.0074
48.007
50.0839
52.2407
54.48
56.8046
59.2171
61.7201
64.3162
67.0081
69.7982
72.6889
75.6828
78.7819
81.9885
85.3045
88.7317
92.2717
95.926
99.6956
103.581
107.584
111.703
115.939
120.291
124.757
129.337
134.028
138.828
143.732
148.739
153.842
159.037
164.319
169.68
175.116
180.617
186.177
191.786
197.437
203.12
208.826
214.545
220.267
225.983
231.681
237.353
242.987
248.573
254.1
259.559
264.938
270.228
275.418
280.498
285.459
290.29
294.96
299.461
303.789
307.939
311.908
315.692
319.289
322.696
325.912
328.934
331.76
334.388
336.817
339.043
341.065
342.882
344.492
345.893
347.084
348.064
348.831
349.384
349.72
349.839
349.738
349.418
348.875
348.108
347.113
345.885
344.413
342.698
340.721
338.469
335.95
333.146
330.055
326.669
322.985
319
314.711
310.12
305.232
300.055
294.603
288.894
282.946
276.779
270.416
263.884
257.216
250.447
243.618
236.767
229.932
223.151
216.458
209.884
203.455
197.196
191.126
185.262
179.615
174.195
169.01
164.064
159.36
154.902
150.692
146.736
143.041
139.62
136.494
133.687
131.221
23.1465
8.8841
6.37585
5.63147
5.41627
5.43573
5.58704
5.82491
6.12599
6.47674
6.86856
7.29561
7.75382
8.2403
8.75308
9.29088
9.85302
10.4393
11.0498
11.6849
12.3454
13.032
13.7456
14.4875
15.2586
16.0602
16.8936
17.76
18.661
19.5978
20.5721
21.5853
22.6391
23.7353
24.8755
26.0616
27.2957
28.5797
29.9157
31.3061
32.753
34.259
35.8265
37.4581
39.1564
40.9243
42.7646
44.6802
46.6741
48.7494
50.909
53.1563
55.4942
57.9262
60.4552
63.0846
65.8176
68.6572
71.6066
74.6688
77.8468
81.1434
84.5613
88.1031
91.771
95.5671
99.4935
103.552
107.743
112.068
116.527
121.121
125.849
130.71
135.703
140.825
146.073
151.445
156.936
162.541
168.254
174.07
179.981
185.98
192.058
198.206
204.415
210.675
216.974
223.303
229.65
236.004
242.352
248.683
254.984
261.244
267.45
273.589
279.648
285.615
291.477
297.222
302.835
308.305
313.6
318.698
323.594
328.281
332.754
337.008
341.037
344.838
348.408
351.742
354.838
357.692
360.299
362.658
364.765
366.617
368.212
369.547
370.622
371.434
371.982
372.266
372.285
372.039
371.528
370.755
369.722
368.429
366.882
365.085
363.036
360.727
358.187
355.402
352.377
349.119
345.625
341.897
337.934
333.734
329.294
324.61
319.679
314.501
309.077
303.412
297.517
291.402
285.082
278.577
271.911
265.116
258.225
251.274
244.303
237.349
230.447
223.633
216.936
210.386
204.005
197.814
191.83
186.067
180.533
175.238
170.186
165.382
160.829
156.53
152.492
148.719
145.223
142.014
139.105
136.501
25.5616
9.64711
6.8204
5.95596
5.6772
5.65558
5.77636
5.98917
6.26826
6.59895
6.97214
7.38181
7.82386
8.29543
8.79459
9.32011
9.87129
10.4479
11.0501
11.6781
12.3328
13.0148
13.7251
14.4649
15.2351
16.0372
16.8724
17.7422
18.6479
19.5912
20.5736
21.5968
22.6627
23.773
24.9297
26.135
27.3909
28.6998
30.064
31.4861
32.9687
34.5145
36.1265
37.8075
39.5607
41.3894
43.2967
45.2861
47.3611
49.5253
51.7824
54.1359
56.5898
59.1477
61.8136
64.591
67.484
70.4962
73.6314
76.8932
80.2852
83.8107
87.4731
91.2754
95.2205
99.3111
103.55
107.938
112.477
117.17
122.016
127.015
132.169
137.475
142.932
148.538
154.289
160.183
166.214
172.376
178.665
185.072
191.589
198.209
204.921
211.715
218.581
225.506
232.478
239.485
246.513
253.551
260.583
267.597
274.578
281.512
288.384
295.179
301.882
308.478
314.952
321.289
327.472
333.471
339.249
344.799
350.113
355.182
360
364.558
368.85
372.872
376.616
380.079
383.256
386.14
388.726
391.01
392.987
394.653
396.006
397.041
397.756
398.15
398.22
397.967
397.389
396.489
395.271
393.74
391.898
389.749
387.316
384.607
381.629
378.397
374.931
371.241
367.344
363.253
358.977
354.526
349.903
345.112
340.15
335.012
329.694
324.189
318.492
312.602
306.52
300.249
293.798
287.181
280.418
273.535
266.562
259.532
252.482
245.448
238.463
231.561
224.774
218.13
211.652
205.361
199.275
193.409
187.773
182.376
177.224
172.323
167.676
163.288
159.163
155.307
151.726
148.429
145.416
142.69
27.5898
10.2854
7.18498
6.21494
5.87883
5.81926
5.91138
6.10047
6.35868
6.67031
7.02574
7.41876
7.8452
8.30222
8.78794
9.30115
9.8412
10.4079
11.0013
11.6219
12.2703
12.9474
13.654
14.3915
15.1609
15.9635
16.801
17.6746
18.586
19.537
20.5292
21.5645
22.6449
23.7724
24.9494
26.178
27.4608
28.8003
30.1993
31.6606
33.1872
34.7822
36.4491
38.1911
40.012
41.9153
43.905
45.985
48.1594
50.4324
52.8082
55.2912
57.8857
60.5963
63.4273
66.3831
69.4682
72.687
76.0439
79.5431
83.1887
86.9848
90.9352
95.0434
99.3128
103.747
108.347
113.117
118.059
123.173
128.461
133.923
139.56
145.369
151.35
157.499
163.814
170.288
176.919
183.698
190.619
197.675
204.856
212.151
219.551
227.043
234.614
242.252
249.942
257.67
265.421
273.18
280.932
288.661
296.351
303.986
311.549
319.021
326.386
333.627
340.726
347.666
354.41
360.917
367.176
373.175
378.903
384.349
389.505
394.361
398.909
403.141
407.049
410.628
413.869
416.766
419.309
421.493
423.313
424.762
425.836
426.53
426.842
426.766
426.302
425.447
424.204
422.578
420.574
418.199
415.463
412.38
408.972
405.258
401.259
397
392.509
387.813
382.938
377.909
372.747
367.471
362.093
356.621
351.056
345.395
339.631
333.755
327.757
321.626
315.356
308.942
302.384
295.689
288.87
281.947
274.943
267.887
260.811
253.748
246.731
239.791
232.958
226.261
219.724
213.368
207.212
201.27
195.555
190.077
184.842
179.857
175.127
170.656
166.45
162.512
158.849
155.462
152.351
149.518
29.2112
10.7966
7.47141
6.41227
6.02623
5.93265
5.99852
6.16559
6.40433
6.69814
7.03699
7.41447
7.82635
8.2698
8.74297
9.24472
9.77444
10.332
10.9175
11.5315
12.1746
12.8478
13.5521
14.2887
15.059
15.8644
16.7066
17.5871
18.5077
19.4703
20.4769
21.5295
22.6306
23.7823
24.9872
26.2479
27.5673
28.9483
30.3941
31.908
33.4933
35.1538
36.8933
38.7157
40.6252
42.6262
44.723
46.9203
49.2229
51.6356
54.1633
56.8112
59.5842
62.4875
65.5262
68.7052
72.0298
75.5049
79.1354
82.9263
86.8821
91.0075
95.3065
99.7832
104.441
109.284
114.315
119.536
124.949
130.555
136.357
142.353
148.544
154.929
161.504
168.268
175.215
182.339
189.635
197.094
204.71
212.473
220.372
228.396
236.532
244.767
253.086
261.473
269.913
278.39
286.886
295.385
303.869
312.321
320.724
329.061
337.309
345.447
353.459
361.323
369.025
376.513
383.753
390.731
397.431
403.838
409.94
415.723
421.177
426.289
431.049
435.448
439.475
443.122
446.383
449.243
451.693
453.726
455.333
456.51
457.248
457.541
457.385
456.776
455.711
454.19
452.216
449.795
446.933
443.643
439.94
435.845
431.382
426.581
421.473
416.095
410.485
404.682
398.727
392.655
386.501
380.295
374.06
367.811
361.556
355.296
349.024
342.729
336.395
330.007
323.548
317.004
310.367
303.633
296.806
289.896
282.921
275.902
268.864
261.837
254.85
247.932
241.112
234.417
227.872
221.498
215.313
209.335
203.575
198.045
192.754
187.708
182.914
178.376
174.1
170.091
166.352
162.883
159.68
156.751
30.4215
11.1811
7.68249
6.55222
6.12476
6.002
6.04479
6.19223
6.41351
6.6914
7.01554
7.37938
7.77864
8.21052
8.67323
9.16568
9.68734
10.2381
10.8183
11.4285
12.0695
12.7422
13.4479
14.188
14.964
15.7776
16.6305
17.5246
18.462
19.4448
20.4753
21.556
22.6894
23.8784
25.1257
26.4346
27.8083
29.2502
30.764
32.3536
34.023
35.7765
37.6185
39.5536
41.5867
43.7227
45.967
48.3247
50.8015
53.403
56.135
59.0032
62.0135
65.1717
68.4834
71.9541
75.5895
79.3952
83.3767
87.5392
91.8879
96.4274
101.162
106.097
111.234
116.578
122.132
127.897
133.875
140.068
146.476
153.099
159.935
166.983
174.242
181.705
189.367
197.218
205.252
213.461
221.835
230.363
239.033
247.832
256.744
265.755
274.847
284.003
293.205
302.434
311.672
320.899
330.096
339.244
348.326
357.328
366.214
374.963
383.561
391.975
400.153
408.079
415.732
423.096
430.151
436.881
443.27
449.304
454.969
460.25
465.136
469.613
473.672
477.3
480.487
483.222
485.492
487.289
488.601
489.421
489.741
489.551
488.848
487.626
485.883
483.619
480.839
477.548
473.756
469.48
464.738
459.558
453.97
448.009
441.718
435.143
428.332
421.336
414.209
407
399.759
392.526
385.338
378.221
371.193
364.259
357.417
350.655
343.955
337.293
330.646
323.99
317.305
310.576
303.795
296.963
290.084
283.174
276.25
269.334
262.452
255.629
248.892
242.266
235.775
229.44
223.282
217.315
211.556
206.015
200.702
195.626
190.795
186.213
181.888
177.822
174.02
170.48
167.198
164.184
31.2319
11.4421
7.82188
6.63948
6.18024
6.03423
6.0582
6.18951
6.39653
6.66161
6.97422
7.32774
7.71792
8.142
8.59826
9.08573
9.60399
10.1531
10.7335
11.3458
11.9911
12.6705
13.3856
14.138
14.9293
15.7617
16.6371
17.558
18.5267
19.5458
20.618
21.7463
22.9337
24.1835
25.4992
26.8846
28.3435
29.8802
31.4988
33.2041
35.0008
36.8939
38.8887
40.9905
43.2051
45.5383
47.9962
50.5848
53.3106
56.1801
59.1999
62.3767
65.7171
69.2278
72.9143
76.7824
80.838
85.0874
89.5361
94.1897
99.0532
104.131
109.428
114.948
120.693
126.667
132.872
139.309
145.978
152.881
160.016
167.382
174.976
182.797
190.841
199.107
207.577
216.239
225.088
234.113
243.303
252.646
262.126
271.729
281.437
291.231
301.094
311.006
320.945
330.891
340.824
350.721
360.562
370.326
379.993
389.539
398.949
408.182
417.194
425.962
434.47
442.698
450.627
458.237
465.507
472.42
478.957
485.102
490.839
496.151
501.026
505.447
509.403
512.879
515.864
518.345
520.308
521.742
522.636
522.978
522.76
521.973
520.611
518.669
516.146
513.042
509.363
505.115
500.311
494.971
489.119
482.786
476.007
468.825
461.289
453.454
445.378
437.125
428.759
420.342
411.939
403.604
395.389
387.332
379.462
371.794
364.331
357.065
349.974
343.032
336.206
329.463
322.769
316.097
309.426
302.742
296.04
289.322
282.597
275.88
269.189
262.546
255.973
249.494
243.131
236.905
230.836
224.941
219.235
213.732
208.442
203.375
198.541
193.945
189.595
185.495
181.648
178.054
174.707
171.623
31.6703
11.5856
7.89421
6.67956
6.19954
6.0378
6.04897
6.16953
6.36748
6.62505
6.93166
7.28076
7.66816
8.09123
8.54841
9.03889
9.56245
10.1193
10.7102
11.336
11.9981
12.6979
13.4373
14.2184
15.0433
15.9144
16.8346
17.8065
18.8333
19.9182
21.0646
22.276
23.5563
24.9095
26.34
27.8524
29.4515
31.1424
32.9304
34.8211
36.8201
38.9336
41.1677
43.5289
46.0237
48.659
51.4417
54.3789
57.4777
60.7454
64.1894
67.8172
71.6366
75.6565
79.8795
84.31
88.9552
93.821
98.913
104.236
109.795
115.593
121.633
127.918
134.451
141.231
148.26
155.537
163.062
170.831
178.843
187.093
195.577
204.29
213.226
222.376
231.728
241.27
250.99
260.875
270.912
281.085
291.377
301.77
312.244
322.778
333.354
343.947
354.534
365.094
375.606
386.043
396.379
406.604
416.688
426.592
436.274
445.718
454.91
463.833
472.467
480.794
488.793
496.442
503.721
510.611
517.091
523.144
528.752
533.897
538.564
542.735
546.396
549.533
552.13
554.175
555.653
556.55
556.855
556.555
555.64
554.102
551.933
549.132
545.696
541.627
536.932
531.621
525.708
519.217
512.175
504.618
496.586
488.127
479.298
470.16
460.781
451.232
441.589
431.929
422.326
412.85
403.567
394.531
385.782
377.347
369.239
361.451
353.966
346.753
339.771
332.977
326.326
319.776
313.29
306.839
300.404
293.975
287.548
281.128
274.727
268.359
262.044
255.8
249.65
243.612
237.706
231.951
226.361
220.953
215.737
210.726
205.93
201.357
197.013
192.906
189.038
185.41
182.017
178.879
31.7955
11.6218
7.9061
6.68008
6.19231
6.0249
6.03216
6.1506
6.3483
6.60763
6.91819
7.27359
7.6699
8.10472
8.57674
9.0855
9.63115
10.2143
10.8361
11.4978
12.2013
12.9487
13.7424
14.5851
15.48
16.4301
17.4391
18.5108
19.6493
20.859
22.1451
23.5108
24.9613
26.5024
28.1396
29.8788
31.7263
33.6885
35.772
37.9837
40.3307
42.8202
45.4597
48.2566
51.2186
54.3533
57.6685
61.1719
64.8712
68.7741
72.8879
77.2199
81.7771
86.5659
91.591
96.8572
102.369
108.131
114.146
120.419
126.95
133.742
140.796
148.11
155.685
163.518
171.607
179.948
188.538
197.37
206.439
215.737
225.257
234.99
244.925
255.052
265.357
275.825
286.442
297.192
308.057
319.019
330.06
341.159
352.292
363.438
374.578
385.684
396.728
407.688
418.556
429.286
439.846
450.195
460.316
470.2
479.829
489.19
498.268
507.046
515.507
523.632
531.399
538.788
545.778
552.348
558.478
564.148
569.339
574.033
578.211
581.856
584.951
587.48
589.429
590.78
591.52
591.634
591.109
589.933
588.096
585.589
582.407
578.547
574.01
568.799
562.924
556.396
549.235
541.467
533.125
524.246
514.878
505.074
494.895
484.41
473.693
462.825
451.889
440.972
430.161
419.539
409.184
399.164
389.534
380.334
371.584
363.289
355.431
347.978
340.886
334.1
327.562
321.214
315.005
308.887
302.826
296.795
290.778
284.769
278.769
272.785
266.831
260.923
255.079
249.317
243.658
238.118
232.715
227.464
222.381
217.477
212.764
208.253
203.952
199.867
196.004
192.363
188.944
185.769
31.7152
11.5747
7.87362
6.65854
6.18028
6.02282
6.04157
6.17376
6.38798
6.66704
7.00094
7.38374
7.81193
8.28356
8.79785
9.35496
9.95587
10.6023
11.2958
12.0381
12.8323
13.6815
14.5895
15.5603
16.5981
17.7077
18.8942
20.1628
21.5194
22.9701
24.5212
26.179
27.9506
29.8433
31.8646
34.0225
36.3249
38.7801
41.3964
44.1822
47.146
50.2962
53.641
57.1887
60.9473
64.9245
69.1278
73.5646
78.2417
83.1654
88.3415
93.7753
99.4711
105.433
111.662
118.161
124.931
131.972
139.284
146.866
154.716
162.831
171.207
179.84
188.723
197.85
207.215
216.81
226.626
236.654
246.882
257.302
267.899
278.663
289.579
300.633
311.81
323.091
334.461
345.902
357.392
368.911
380.441
391.962
403.442
414.856
426.204
437.442
448.534
459.445
470.132
480.596
490.828
500.81
510.531
519.98
529.143
538.008
546.563
554.791
562.678
570.203
577.348
584.093
590.415
596.294
601.71
606.641
611.067
614.969
618.327
621.123
623.338
624.955
625.957
626.328
626.052
625.114
623.501
621.201
618.204
614.503
610.094
604.975
599.149
592.623
585.41
577.525
568.991
559.84
550.108
539.838
529.083
517.902
506.36
494.533
482.5
470.348
458.17
446.058
434.109
422.415
411.067
400.144
389.714
379.828
370.517
361.793
353.645
346.04
338.928
332.248
325.928
319.896
314.081
308.42
302.858
297.354
291.876
286.404
280.929
275.451
269.976
264.515
259.083
253.698
248.377
243.14
238.004
232.986
228.103
223.368
218.794
214.395
210.18
206.158
202.334
198.713
195.293
192.106
31.5909
11.4837
7.82241
6.64032
6.1923
6.06574
6.11797
6.28741
6.5436
6.87015
7.25782
7.70138
8.19848
8.74789
9.3493
10.0043
10.7151
11.4846
12.3162
13.2138
14.182
15.226
16.3514
17.5646
18.8722
20.2814
21.7999
23.4356
25.1971
27.0932
29.1329
31.3258
33.6816
36.21
38.9212
41.8253
44.932
48.2512
51.7924
55.5646
59.5764
63.8358
68.3503
73.1264
78.17
83.4864
89.0798
94.9539
101.111
107.554
114.283
121.297
128.596
136.176
144.033
152.164
160.563
169.224
178.14
187.305
196.711
206.348
216.208
226.279
236.551
247.014
257.657
268.466
279.43
290.536
301.77
313.118
324.567
336.1
347.703
359.362
371.056
382.765
394.476
406.175
417.831
429.419
440.936
452.362
463.647
474.759
485.651
496.318
506.761
516.969
526.926
536.626
546.059
555.214
564.082