/*--------------------------------*- C++ -*----------------------------------*\
| =========                 |                                                 |
| \\      /  F ield         | OpenFOAM: The Open Source CFD Toolbox           |
|  \\    /   O peration     | Version:  plus                                  |
|   \\  /    A nd           | Website:  www.openfoam.com                      |
|    \\/     M anipulation  |                                                 |
\*---------------------------------------------------------------------------*/
FoamFile
{
    version     2.0;
    format      ascii;
    class       volScalarField;
    location    "150";
    object      k;
}
// * * * * * * * * * * * * * * * * * * * * * * * * * * * * * * * * * * * * * //

dimensions      [0 2 -2 0 0 0 0];


internalField   nonuniform List<scalar> 
12225
(
0.753318
1.08439
1.3156
1.46372
1.55238
1.60099
1.62353
1.62955
1.62535
1.61506
1.6013
1.58576
1.56949
1.55315
1.53715
1.52169
1.50676
1.4939
0.466899
0.491351
0.499065
0.50164
0.501198
0.498809
0.495447
0.491837
0.488454
0.485574
0.483342
0.481813
0.480988
0.480837
0.481324
0.482472
0.484878
0.488046
0.399906
0.409187
0.407549
0.401186
0.392662
0.383171
0.373409
0.36381
0.354646
0.346081
0.338205
0.331057
0.324642
0.318941
0.313925
0.309566
0.305838
0.302529
0.37962
0.381736
0.380985
0.378139
0.373867
0.368678
0.362942
0.356928
0.350825
0.344771
0.338862
0.333162
0.327716
0.322551
0.317681
0.31311
0.308827
0.304836
0.374797
0.374411
0.373203
0.371185
0.368508
0.365335
0.36181
0.358054
0.354166
0.35022
0.346275
0.342376
0.338558
0.334845
0.331254
0.327799
0.324484
0.321337
0.373412
0.371973
0.370404
0.368569
0.366464
0.364124
0.361601
0.358947
0.356206
0.353419
0.350616
0.347825
0.345066
0.342357
0.339709
0.337133
0.334638
0.33225
0.372994
0.371097
0.369277
0.367434
0.365527
0.363546
0.361497
0.359394
0.357256
0.3551
0.352942
0.350796
0.348673
0.346584
0.344537
0.342538
0.340594
0.338729
0.372867
0.370782
0.368819
0.366928
0.365075
0.363238
0.361409
0.359584
0.357766
0.355959
0.354169
0.352401
0.350661
0.348955
0.347285
0.345656
0.344071
0.342551
0.372828
0.370672
0.36864
0.366709
0.364858
0.363071
0.361336
0.359644
0.35799
0.356372
0.354789
0.353243
0.351732
0.35026
0.348826
0.347432
0.34608
0.344785
0.372814
0.370632
0.36857
0.366616
0.364756
0.362981
0.36128
0.359645
0.358069
0.356547
0.355075
0.353651
0.352273
0.350939
0.349648
0.3484
0.347194
0.346044
0.372807
0.370616
0.368542
0.366575
0.364708
0.362932
0.36124
0.359626
0.358082
0.356603
0.355184
0.353823
0.352514
0.351257
0.350047
0.348883
0.347764
0.346701
0.372804
0.370609
0.368529
0.366556
0.364684
0.362906
0.361215
0.359605
0.358071
0.356607
0.355209
0.353872
0.352594
0.35137
0.350197
0.349074
0.347997
0.346978
0.372801
0.370604
0.36852
0.366545
0.364669
0.362888
0.361195
0.359586
0.358054
0.356595
0.355205
0.353878
0.352613
0.351405
0.35025
0.349147
0.348092
0.347097
0.372799
0.370599
0.368514
0.366536
0.364658
0.362874
0.361179
0.359568
0.358035
0.356576
0.355187
0.353864
0.352603
0.3514
0.350253
0.349157
0.348113
0.347128
0.372797
0.370596
0.368509
0.366528
0.364648
0.362862
0.361165
0.359552
0.358018
0.356557
0.355167
0.353843
0.352581
0.351379
0.350232
0.349138
0.348095
0.347113
0.372795
0.370593
0.368505
0.366522
0.36464
0.362853
0.361154
0.359539
0.358002
0.35654
0.355148
0.353822
0.352558
0.351354
0.350206
0.349111
0.348067
0.347084
0.372794
0.370592
0.368502
0.366518
0.364635
0.362846
0.361145
0.359528
0.35799
0.356526
0.355132
0.353804
0.352539
0.351332
0.350182
0.349085
0.34804
0.347055
0.372794
0.37059
0.3685
0.366515
0.364631
0.362841
0.361139
0.359521
0.357981
0.356515
0.35512
0.353791
0.352524
0.351316
0.350165
0.349066
0.348019
0.347033
0.372794
0.37059
0.368499
0.366515
0.36463
0.362839
0.361137
0.359518
0.357977
0.356511
0.355114
0.353784
0.352516
0.351308
0.350155
0.349056
0.348008
0.347021
0.372794
0.370591
0.368501
0.366516
0.364632
0.362841
0.361139
0.359521
0.35798
0.356514
0.355118
0.353788
0.35252
0.351311
0.350158
0.349059
0.34801
0.347023
0.372795
0.370593
0.368503
0.36652
0.364637
0.362847
0.361146
0.359528
0.357989
0.356524
0.355128
0.353799
0.352532
0.351323
0.35017
0.349071
0.348022
0.347034
0.372797
0.370596
0.368508
0.366527
0.364647
0.362861
0.361163
0.359549
0.358012
0.356549
0.355155
0.353826
0.352559
0.351348
0.350192
0.349088
0.348034
0.347039
0.3728
0.370603
0.368523
0.366553
0.364684
0.362909
0.361223
0.359617
0.358086
0.356625
0.355227
0.35389
0.352608
0.351379
0.350199
0.349067
0.34798
0.346949
0.372811
0.37064
0.368599
0.366673
0.364848
0.363111
0.361449
0.359852
0.358314
0.356826
0.355387
0.353991
0.352638
0.351325
0.350052
0.348817
0.347621
0.346476
0.372878
0.370848
0.368976
0.367207
0.365498
0.363822
0.362162
0.360511
0.358868
0.357233
0.355611
0.354005
0.35242
0.35086
0.349327
0.347826
0.34636
0.344945
0.373296
0.371888
0.370555
0.36914
0.36758
0.365863
0.364005
0.362033
0.359977
0.357863
0.355717
0.353559
0.351405
0.349268
0.347161
0.34509
0.343065
0.341105
0.375592
0.376405
0.376344
0.375318
0.373493
0.371082
0.368264
0.365176
0.361917
0.358562
0.355165
0.351767
0.348401
0.345089
0.341849
0.338695
0.335637
0.332696
0.388377
0.395984
0.396864
0.394346
0.390173
0.385133
0.379637
0.373922
0.368139
0.362388
0.35674
0.351247
0.345947
0.340865
0.336017
0.331412
0.327049
0.322937
0.431726
0.445048
0.447898
0.447771
0.446646
0.44495
0.442874
0.440557
0.438103
0.435595
0.433103
0.430681
0.428372
0.426205
0.4242
0.42236
0.420667
0.419068
0.569272
0.752523
0.899799
1.0142
1.11171
1.19252
1.25776
1.30909
1.34842
1.37765
1.39855
1.41269
1.4214
1.42581
1.42686
1.42532
1.4218
1.41676
0.00719213
0.0109969
0.0137857
0.016233
0.0187652
0.0213798
0.0245546
0.0279843
0.0316967
0.0356287
0.0397134
0.0439056
0.0481767
0.0525086
0.0568889
0.0613093
0.0657641
0.0702494
0.0747634
0.0793052
0.0838757
0.0884767
0.0931112
0.0977833
0.102498
0.107263
0.112086
0.116978
0.121951
0.127023
0.132214
0.137553
0.143075
0.148791
0.154631
0.160597
0.166693
0.172927
0.179303
0.185826
0.192502
0.199335
0.20633
0.21349
0.22082
0.228322
0.235999
0.243854
0.251889
0.260106
0.268507
0.277091
0.285859
0.294813
0.30395
0.31327
0.322772
0.332454
0.342314
0.352348
0.362553
0.372927
0.383463
0.394157
0.405005
0.415999
0.427134
0.438403
0.449798
0.461311
0.472935
0.484661
0.496479
0.50838
0.520355
0.532393
0.544484
0.556617
0.568783
0.580969
0.593167
0.605363
0.617549
0.629713
0.641844
0.653933
0.665968
0.677941
0.68984
0.701656
0.713379
0.725002
0.736514
0.747908
0.759175
0.77031
0.781304
0.792152
0.802848
0.813387
0.823764
0.833977
0.844025
0.853913
0.863648
0.873248
0.882742
0.892176
0.901625
0.911026
0.920272
0.929368
0.938316
0.947113
0.955756
0.96424
0.972557
0.980701
0.98866
0.996425
1.00398
1.01132
1.01841
1.02525
1.03181
1.03808
1.04403
1.04963
1.05486
1.05968
1.06407
1.068
1.07142
1.07429
1.07658
1.07823
1.07921
1.07945
1.07892
1.07754
1.07525
1.072
1.06773
1.06236
1.05584
1.04813
1.03922
1.02875
1.017
1.00499
0.990898
0.975257
0.966426
0.959823
0.952594
0.944424
0.935326
0.92538
0.914684
0.903346
0.891473
0.879174
0.866551
0.853703
0.840719
0.827683
0.814665
0.801728
0.788923
0.776287
0.763847
0.75161
0.739564
0.727665
0.715818
0.703832
0.691324
0.677428
0.662102
0.641965
0.0148811
0.0262301
0.0354286
0.0426515
0.0488104
0.0546666
0.0606335
0.0668955
0.0734727
0.0803182
0.0873791
0.0946157
0.102001
0.109518
0.117153
0.124898
0.132747
0.140696
0.148742
0.156884
0.165124
0.173464
0.181907
0.190459
0.199126
0.207916
0.216836
0.225898
0.23511
0.244484
0.254031
0.263762
0.273687
0.283815
0.29415
0.304706
0.315494
0.326526
0.337812
0.349364
0.361193
0.373307
0.385717
0.398432
0.41146
0.424808
0.438485
0.452496
0.466848
0.481547
0.496597
0.512002
0.527765
0.543888
0.560375
0.577224
0.594437
0.612013
0.629949
0.648243
0.666892
0.68589
0.705233
0.724913
0.744922
0.765253
0.785895
0.806837
0.828068
0.849574
0.87134
0.893353
0.915596
0.938052
0.960702
0.983529
1.00651
1.02963
1.05287
1.0762
1.0996
1.12305
1.14653
1.17002
1.19349
1.21693
1.24031
1.26361
1.28682
1.30991
1.33286
1.35566
1.37829
1.40073
1.42297
1.445
1.46681
1.48839
1.50973
1.53082
1.55167
1.57226
1.59261
1.61271
1.63258
1.65223
1.67168
1.69097
1.70998
1.72865
1.7471
1.76539
1.78351
1.8015
1.81935
1.83708
1.8547
1.87222
1.88962
1.90691
1.92409
1.94115
1.95808
1.97486
1.99146
2.00787
2.02404
2.03995
2.05554
2.07077
2.08557
2.09987
2.1136
2.12667
2.13898
2.15042
2.16086
2.17018
2.17824
2.18486
2.18989
2.19315
2.19445
2.19363
2.19047
2.18479
2.17646
2.16527
2.15086
2.13345
2.11365
2.09041
2.06583
2.03952
2.01126
1.98117
1.94949
1.91646
1.88235
1.8474
1.81188
1.776
1.74
1.70408
1.66842
1.63318
1.59852
1.56454
1.53134
1.499
1.46757
1.43708
1.40753
1.3789
1.35111
1.32403
1.2974
1.27072
1.24246
1.21117
0.0222003
0.0428408
0.0556866
0.0652797
0.0736583
0.081648
0.089674
0.0979404
0.106508
0.115366
0.124476
0.133801
0.143311
0.152985
0.162807
0.172767
0.18286
0.193082
0.203431
0.213908
0.224515
0.235257
0.246139
0.257167
0.26835
0.279696
0.291216
0.30292
0.31482
0.326926
0.339251
0.351807
0.364605
0.377659
0.39098
0.404583
0.418482
0.432691
0.447224
0.462094
0.477314
0.492897
0.508855
0.525198
0.541938
0.559085
0.576648
0.594636
0.613058
0.631919
0.651228
0.670989
0.691207
0.711886
0.733029
0.754638
0.776713
0.799254
0.822261
0.84573
0.869657
0.894039
0.918869
0.94414
0.969842
0.995966
1.0225
1.04943
1.07675
1.10443
1.13246
1.16082
1.1895
1.21846
1.24769
1.27716
1.30685
1.33673
1.36678
1.39695
1.42723
1.45759
1.48799
1.5184
1.5488
1.57915
1.60942
1.63957
1.66959
1.69944
1.72909
1.75852
1.7877
1.8166
1.84521
1.87349
1.90144
1.92903
1.95625
1.98309
2.00953
2.03557
2.06122
2.08646
2.1113
2.13576
2.15984
2.18356
2.20673
2.22946
2.25182
2.27382
2.29551
2.3169
2.33801
2.35886
2.37946
2.39982
2.41995
2.43985
2.45954
2.479
2.49824
2.51725
2.536
2.55448
2.57266
2.5905
2.60796
2.62499
2.64151
2.65747
2.67276
2.68728
2.70093
2.71355
2.72502
2.73515
2.74376
2.75065
2.75561
2.7584
2.75877
2.75648
2.75126
2.74285
2.73094
2.71537
2.69611
2.67361
2.64828
2.62003
2.58935
2.5562
2.52063
2.48286
2.44317
2.40185
2.35923
2.31562
2.27131
2.22661
2.18179
2.1371
2.09277
2.04901
2.00598
1.96384
1.9227
1.88267
1.84382
1.80619
1.76979
1.73464
1.70066
1.6678
1.63588
1.60465
1.57329
1.5423
0.0285674
0.0575499
0.073693
0.0856043
0.0958658
0.1055
0.115017
0.124678
0.134597
0.144804
0.155288
0.166023
0.17698
0.188137
0.199474
0.210981
0.222649
0.234475
0.246456
0.258594
0.270891
0.283353
0.295986
0.308797
0.321795
0.33499
0.348392
0.362013
0.375864
0.389958
0.404307
0.418925
0.433826
0.449024
0.464533
0.480369
0.496548
0.513085
0.529996
0.547295
0.564998
0.583119
0.601671
0.62067
0.640126
0.660053
0.680462
0.701363
0.722768
0.744685
0.767122
0.790088
0.813588
0.837628
0.862213
0.887347
0.913031
0.939266
0.966053
0.99339
1.02127
1.0497
1.07867
1.10816
1.13818
1.16871
1.19974
1.23126
1.26324
1.29568
1.32855
1.36184
1.39551
1.42956
1.46394
1.49863
1.53359
1.56881
1.60424
1.63986
1.67561
1.71147
1.74739
1.78335
1.81929
1.85518
1.89097
1.92663
1.96212
1.9974
2.03242
2.06716
2.10157
2.13562
2.16928
2.20252
2.2353
2.2676
2.2994
2.33067
2.3614
2.39157
2.42117
2.45019
2.47864
2.50651
2.53383
2.56043
2.58635
2.61164
2.63635
2.6605
2.68413
2.70727
2.72993
2.75215
2.77393
2.7953
2.81628
2.83687
2.85709
2.87695
2.89646
2.91561
2.93439
2.95281
2.97084
2.98844
3.0056
3.02226
3.03838
3.05388
3.06867
3.08267
3.09575
3.10777
3.11858
3.12799
3.13581
3.14181
3.14573
3.14733
3.14628
3.14233
3.13509
3.1243
3.10976
3.09161
3.06981
3.04464
3.01633
2.98494
2.95064
2.91348
2.87363
2.83134
2.78691
2.74067
2.69297
2.64415
2.59455
2.5445
2.49431
2.44426
2.39461
2.34559
2.2974
2.25021
2.20416
2.15936
2.1159
2.07385
2.03323
1.99406
1.95633
1.92
1.88501
1.85125
1.81831
1.78713
0.0362088
0.0704088
0.0896011
0.103644
0.11559
0.126634
0.137374
0.148129
0.159064
0.170254
0.18172
0.193455
0.205443
0.217664
0.230101
0.24274
0.255573
0.268595
0.281803
0.295198
0.308782
0.322562
0.336542
0.35073
0.365135
0.379767
0.394637
0.409756
0.425136
0.440791
0.456733
0.472977
0.489537
0.50643
0.52367
0.541274
0.55926
0.577643
0.596441
0.615671
0.635349
0.655491
0.676114
0.697233
0.718863
0.741018
0.763713
0.786961
0.810774
0.835164
0.860142
0.885717
0.911899
0.938695
0.966112
0.994156
1.02283
1.05214
1.08209
1.11267
1.14388
1.17573
1.20821
1.24131
1.27503
1.30934
1.34426
1.37975
1.4158
1.4524
1.48953
1.52715
1.56526
1.60381
1.64279
1.68215
1.72187
1.7619
1.80221
1.84275
1.88349
1.92437
1.96536
2.00639
2.04743
2.08843
2.12932
2.17007
2.21062
2.25092
2.29093
2.33058
2.36984
2.40866
2.44699
2.48479
2.52202
2.55864
2.59462
2.62992
2.66451
2.69836
2.73146
2.76379
2.79533
2.82607
2.85599
2.88493
2.91296
2.94012
2.96645
2.99199
3.01676
3.0408
3.06413
3.08678
3.10878
3.13014
3.1509
3.17107
3.19068
3.20974
3.22827
3.24629
3.26381
3.28082
3.29734
3.31334
3.32882
3.34374
3.35808
3.37178
3.38478
3.397
3.40832
3.41864
3.42779
3.4356
3.44187
3.44636
3.44881
3.44892
3.44637
3.44082
3.43196
3.41969
3.40389
3.38453
3.3616
3.3352
3.30546
3.27244
3.23621
3.19688
3.15462
3.1097
3.06243
3.01317
2.96228
2.91012
2.85707
2.80347
2.74966
2.69595
2.64263
2.58995
2.53814
2.48738
2.43783
2.38962
2.34286
2.29762
2.25396
2.21191
2.17151
2.13274
2.09562
2.06011
2.026
1.99415
0.0434252
0.0815505
0.103386
0.119318
0.132769
0.145066
0.156872
0.168555
0.180322
0.192285
0.204498
0.216978
0.229723
0.242725
0.255972
0.269452
0.283157
0.297082
0.311224
0.325584
0.340163
0.354967
0.37
0.385271
0.400788
0.416559
0.432597
0.448913
0.465518
0.482426
0.499651
0.517207
0.53511
0.553377
0.572023
0.591066
0.610524
0.630415
0.650758
0.67157
0.692871
0.714678
0.73701
0.759885
0.78332
0.807332
0.831938
0.857153
0.882993
0.909472
0.936605
0.964402
0.992877
1.02204
1.0519
1.08247
1.11374
1.14574
1.17846
1.2119
1.24608
1.28097
1.31659
1.35293
1.38998
1.42774
1.46619
1.50531
1.54511
1.58554
1.62661
1.66827
1.71051
1.7533
1.79659
1.84037
1.88458
1.92919
1.97415
2.01941
2.06493
2.11065
2.15651
2.20247
2.24845
2.29441
2.34027
2.38598
2.43148
2.47669
2.52156
2.56604
2.61005
2.65353
2.69644
2.73871
2.78029
2.82112
2.86116
2.90037
2.93868
2.97608
3.01251
3.04795
3.08237
3.11577
3.14794
3.17891
3.20869
3.23734
3.26488
3.29135
3.31677
3.34117
3.36459
3.38705
3.40859
3.42923
3.449
3.46794
3.48607
3.50342
3.52004
3.53594
3.55115
3.56571
3.57961
3.59289
3.60555
3.61758
3.629
3.63977
3.64986
3.65922
3.66778
3.67543
3.68205
3.6875
3.69156
3.69402
3.6946
3.693
3.68893
3.68212
3.67237
3.65951
3.64337
3.62386
3.60089
3.57445
3.54457
3.51127
3.47455
3.43453
3.39138
3.34536
3.29679
3.246
3.19338
3.13931
3.08418
3.02836
2.97221
2.91607
2.86025
2.80502
2.75063
2.6973
2.64519
2.59447
2.54525
2.49762
2.45167
2.40746
2.36503
2.32443
2.2857
2.24886
2.21378
2.18107
0.0499441
0.0910062
0.115079
0.132643
0.147409
0.16081
0.173557
0.18605
0.198527
0.21113
0.223939
0.236994
0.250311
0.263895
0.27774
0.291842
0.306196
0.320797
0.335644
0.350736
0.366077
0.38167
0.39752
0.413636
0.430024
0.446694
0.463657
0.480924
0.498508
0.516421
0.534678
0.553294
0.572284
0.591667
0.611458
0.631677
0.652342
0.673473
0.69509
0.717212
0.73986
0.763055
0.786817
0.811166
0.836123
0.861707
0.887937
0.914833
0.942412
0.970693
0.999692
1.02942
1.05991
1.09115
1.12317
1.15597
1.18958
1.22398
1.2592
1.29524
1.3321
1.36978
1.40829
1.44761
1.48776
1.52871
1.57046
1.613
1.65631
1.70038
1.74518
1.7907
1.83689
1.88373
1.93119
1.97922
2.02779
2.07685
2.12634
2.17622
2.22643
2.2769
2.32757
2.37838
2.42926
2.48014
2.53094
2.58159
2.63201
2.68213
2.73187
2.78117
2.82993
2.8781
2.92559
2.97234
3.01828
3.06333
3.10744
3.15054
3.19256
3.23347
3.27319
3.31168
3.3489
3.38476
3.41908
3.4519
3.48326
3.51316
3.54165
3.56875
3.59449
3.61889
3.64199
3.66381
3.6844
3.70377
3.72197
3.73904
3.75502
3.76994
3.78386
3.79681
3.80885
3.82002
3.83036
3.83992
3.84874
3.85685
3.86428
3.87106
3.8772
3.88268
3.88748
3.89153
3.89476
3.89706
3.89824
3.89812
3.89646
3.89304
3.88761
3.87995
3.86983
3.85701
3.8413
3.82249
3.80044
3.77502
3.74616
3.71379
3.67791
3.63856
3.5959
3.55016
3.50163
3.45066
3.39761
3.34288
3.28687
3.22998
3.17258
3.11505
3.0577
3.00084
2.94474
2.88964
2.83574
2.7832
2.73218
2.68278
2.63512
2.58926
2.54529
2.50329
2.4633
2.42538
2.3895
2.35587
0.055689
0.0988714
0.124792
0.143727
0.159611
0.173959
0.187518
0.200712
0.213797
0.226936
0.24023
0.253736
0.26749
0.281505
0.295789
0.310344
0.325168
0.340262
0.355624
0.371257
0.387162
0.403346
0.419812
0.436569
0.453623
0.470985
0.488664
0.506673
0.525023
0.543727
0.562801
0.58226
0.60212
0.622398
0.643114
0.664286
0.685934
0.708079
0.730743
0.753948
0.777715
0.802069
0.82703
0.852624
0.878872
0.905797
0.933421
0.961767
0.990856
1.02071
1.05135
1.08279
1.11505
1.14815
1.18211
1.21694
1.25265
1.28925
1.32676
1.36519
1.40454
1.44481
1.48601
1.52813
1.57119
1.61516
1.66004
1.70583
1.75251
1.80006
1.84845
1.89767
1.94769
1.99847
2.04998
2.10218
2.15501
2.20843
2.26238
2.3168
2.37164
2.42682
2.48226
2.5379
2.59366
2.64944
2.70518
2.76077
2.81613
2.87118
2.92582
2.97996
3.03352
3.0864
3.13852
3.18979
3.24012
3.28943
3.33764
3.38466
3.43042
3.47485
3.51786
3.55941
3.5994
3.6376
3.67398
3.70857
3.74137
3.77241
3.80169
3.82923
3.85507
3.87921
3.90171
3.92257
3.94183
3.95953
3.97571
3.99041
4.00368
4.01557
4.02614
4.03545
4.04356
4.05055
4.05649
4.06144
4.06548
4.06869
4.07115
4.07293
4.07409
4.07467
4.07471
4.07421
4.07315
4.07146
4.06906
4.06583
4.06163
4.05626
4.04953
4.0412
4.03103
4.01873
4.00403
3.98666
3.96635
3.9429
3.91612
3.88586
3.85203
3.81464
3.77377
3.72962
3.68243
3.63254
3.58029
3.5261
3.47035
3.41346
3.35584
3.29786
3.23988
3.18224
3.12522
3.06908
3.01405
2.96033
2.90808
2.85744
2.80854
2.76149
2.71637
2.6733
2.63234
2.59354
2.55689
2.52245
0.0606447
0.105252
0.132661
0.152716
0.169519
0.184653
0.198891
0.21267
0.226262
0.239842
0.253523
0.26738
0.281458
0.295786
0.310379
0.325248
0.340396
0.355828
0.371546
0.387554
0.403856
0.420457
0.437364
0.454583
0.472123
0.489994
0.508205
0.526769
0.545698
0.565005
0.584707
0.604817
0.625355
0.646338
0.667785
0.689716
0.712154
0.735121
0.758639
0.782733
0.807427
0.832746
0.858716
0.885363
0.912712
0.940789
0.96962
0.99923
1.02964
1.06089
1.09298
1.12595
1.15982
1.19461
1.23033
1.26701
1.30467
1.34331
1.38295
1.42361
1.46529
1.508
1.55175
1.59654
1.64237
1.68923
1.73712
1.78603
1.83595
1.88686
1.93875
1.99158
2.04532
2.09995
2.15542
2.21169
2.26871
2.32642
2.38477
2.44369
2.50311
2.56294
2.62312
2.68356
2.74416
2.80484
2.86549
2.92602
2.98633
3.0463
3.10584
3.16485
3.22321
3.28082
3.33758
3.39339
3.44814
3.50172
3.55404
3.605
3.65451
3.70246
3.74877
3.79334
3.83595
3.87646
3.91486
3.95116
3.98533
4.0174
4.04736
4.07522
4.10101
4.12473
4.14641
4.16607
4.18374
4.19946
4.21327
4.22522
4.23535
4.24372
4.25042
4.2555
4.25906
4.26118
4.26196
4.26151
4.25994
4.25737
4.25392
4.24973
4.24491
4.2396
4.23387
4.22783
4.22158
4.2151
4.20845
4.20157
4.19439
4.18679
4.1786
4.16958
4.15948
4.14797
4.13471
4.11934
4.10151
4.08087
4.05715
4.03007
3.99947
3.96525
3.92744
3.88614
3.84157
3.794
3.74377
3.69127
3.6369
3.58108
3.52423
3.46676
3.40903
3.35141
3.29422
3.23775
3.18225
3.12794
3.07501
3.02363
2.97395
2.92609
2.88019
2.83635
2.79466
2.75517
2.71784
2.6827
0.0648192
0.110252
0.138821
0.159762
0.177295
0.193053
0.207831
0.222077
0.23607
0.249992
0.263968
0.27808
0.292386
0.306922
0.321714
0.336777
0.352124
0.367762
0.383698
0.399938
0.416488
0.433355
0.450546
0.46807
0.485935
0.504151
0.522729
0.541682
0.561023
0.580766
0.600926
0.621521
0.642568
0.664087
0.686098
0.708623
0.731686
0.755309
0.779518
0.80434
0.8298
0.855928
0.88275
0.910296
0.938595
0.967675
0.997566
1.0283
1.05989
1.09239
1.12581
1.16018
1.19552
1.23187
1.26924
1.30765
1.34713
1.3877
1.42937
1.47215
1.51606
1.56112
1.60732
1.65467
1.70317
1.75283
1.80364
1.8556
1.90868
1.96287
2.01816
2.07452
2.13191
2.19031
2.24968
2.30995
2.37109
2.43303
2.49571
2.55905
2.62299
2.68742
2.75228
2.81746
2.88285
2.94837
3.01389
3.07931
3.1445
3.20936
3.27376
3.33757
3.40069
3.46299
3.52435
3.58465
3.64377
3.70158
3.75797
3.81282
3.86601
3.91743
3.96697
4.0144
4.05951
4.10226
4.1426
4.18051
4.21598
4.24899
4.27953
4.3076
4.33321
4.35636
4.37707
4.39535
4.41122
4.42472
4.43589
4.44477
4.45142
4.4559
4.45829
4.45868
4.45716
4.45384
4.44884
4.4423
4.43438
4.42523
4.41504
4.40397
4.39228
4.38016
4.36777
4.35532
4.34301
4.33096
4.3193
4.3081
4.29736
4.28705
4.27702
4.26709
4.25698
4.24633
4.23476
4.2218
4.20701
4.18993
4.17014
4.14726
4.12098
4.09112
4.05758
4.02039
3.97968
3.93567
3.88868
3.83905
3.78718
3.7335
3.67843
3.6224
3.56582
3.50905
3.45246
3.39636
3.34104
3.28673
3.23366
3.18203
3.13201
3.08376
3.03741
2.9931
2.95091
2.91091
2.87304
2.83734
0.0682312
0.113973
0.143403
0.165017
0.1831
0.199327
0.214508
0.229098
0.243382
0.257546
0.27172
0.285996
0.300435
0.315084
0.329973
0.345127
0.360561
0.376289
0.392321
0.408666
0.425332
0.44233
0.459667
0.477354
0.4954
0.513817
0.532617
0.551813
0.571418
0.591449
0.611922
0.632855
0.654267
0.67618
0.698614
0.721593
0.745143
0.76929
0.794059
0.819481
0.845585
0.8724
0.899958
0.928291
0.95743
0.987409
1.01826
1.05001
1.0827
1.11636
1.15102
1.18671
1.22346
1.26129
1.30024
1.34033
1.38158
1.42402
1.46765
1.51251
1.55861
1.60596
1.65456
1.70444
1.75558
1.808
1.86168
1.91663
1.97282
2.03025
2.08889
2.14873
2.20972
2.27183
2.33502
2.39924
2.46443
2.53052
2.59745
2.66513
2.73349
2.80244
2.87187
2.94168
3.01177
3.08201
3.15229
3.22247
3.29244
3.36204
3.43117
3.49966
3.5674
3.63425
3.70007
3.76472
3.82806
3.88994
3.95023
4.0088
4.06552
4.12024
4.17274
4.22276
4.27021
4.31503
4.35717
4.39657
4.43319
4.46701
4.498
4.52614
4.55143
4.57386
4.59344
4.61016
4.62404
4.63511
4.6434
4.64896
4.65185
4.65212
4.64987
4.64518
4.63815
4.6289
4.61761
4.60444
4.58957
4.57323
4.55562
4.53702
4.51772
4.498
4.47816
4.45849
4.4393
4.42086
4.40339
4.38709
4.37208
4.3584
4.346
4.33472
4.32431
4.31441
4.30457
4.29427
4.28295
4.27003
4.25494
4.23716
4.21624
4.19186
4.16378
4.13192
4.09633
4.05713
4.01459
3.96901
3.92079
3.87034
3.81809
3.76449
3.70995
3.65489
3.59969
3.54469
3.4902
3.43652
3.38387
3.3325
3.28259
3.23434
3.18789
3.14341
3.10098
3.06065
3.02241
2.98634
0.0709072
0.116514
0.146535
0.168624
0.187092
0.20364
0.21909
0.233902
0.248365
0.262667
0.276944
0.291288
0.30577
0.320439
0.335333
0.35048
0.365901
0.381613
0.397632
0.41397
0.430637
0.447647
0.465008
0.482735
0.500837
0.519329
0.538223
0.557535
0.57728
0.597476
0.618139
0.639291
0.660951
0.683143
0.70589
0.729219
0.753155
0.777728
0.802967
0.828903
0.855569
0.882997
0.911223
0.94028
0.970205
1.00103
1.0328
1.06554
1.0993
1.1341
1.16998
1.20698
1.24512
1.28445
1.32498
1.36675
1.40979
1.45411
1.49973
1.54669
1.595
1.64466
1.69569
1.74811
1.80191
1.85709
1.91366
1.9716
2.03091
2.09156
2.15354
2.21682
2.28137
2.34714
2.41411
2.4822
2.55136
2.62152
2.69259
2.7645
2.83715
2.91046
2.98431
3.05859
3.13318
3.20795
3.28278
3.35751
3.43201
3.50613
3.57973
3.65265
3.72474
3.79585
3.86584
3.93455
4.00181
4.06746
4.13134
4.1933
4.25321
4.31078
4.36577
4.41809
4.46761
4.51425
4.55792
4.59856
4.63611
4.67051
4.70173
4.72973
4.75449
4.77599
4.79423
4.80919
4.82086
4.82927
4.83446
4.83646
4.83533
4.83113
4.82394
4.81387
4.80102
4.78555
4.76762
4.74745
4.72524
4.70124
4.67575
4.6491
4.62162
4.59371
4.56575
4.53816
4.51134
4.48571
4.46163
4.43942
4.41933
4.40152
4.38604
4.37281
4.36164
4.35217
4.34393
4.33635
4.32875
4.32044
4.3107
4.29884
4.28424
4.26639
4.24493
4.21962
4.19037
4.15723
4.12038
4.08008
4.03667
3.99057
3.94221
3.89203
3.84049
3.78802
3.73503
3.68188
3.62894
3.57651
3.52488
3.47429
3.42497
3.37713
3.33096
3.28662
3.2442
3.20379
3.16535
3.12904
0.0728824
0.117971
0.148335
0.17072
0.18942
0.20615
0.22174
0.236656
0.251187
0.265525
0.279805
0.294126
0.30856
0.323161
0.337971
0.353021
0.368338
0.383942
0.399852
0.416083
0.432651
0.44957
0.466852
0.484513
0.502568
0.52103
0.539917
0.559245
0.579031
0.599296
0.620059
0.641343
0.66317
0.685566
0.708557
0.732171
0.756439
0.78139
0.807059
0.833479
0.860686
0.888715
0.917605
0.947393
0.978119
1.00982
1.04254
1.07631
1.11118
1.14719
1.18436
1.22275
1.26238
1.3033
1.34552
1.38908
1.434
1.48032
1.52805
1.57722
1.62784
1.67993
1.7335
1.78856
1.8451
1.90314
1.96266
2.02366
2.08612
2.15003
2.21536
2.28208
2.35016
2.41956
2.49024
2.56214
2.63517
2.70926
2.78432
2.86027
2.93702
3.01446
3.09247
3.17095
3.24975
3.32873
3.40776
3.48669
3.56535
3.64358
3.72123
3.79813
3.87412
3.94903
4.0227
4.09501
4.1657
4.23458
4.30152
4.36631
4.42866
4.48843
4.54547
4.59964
4.6508
4.69884
4.74365
4.78515
4.82325
4.85789
4.889
4.91654
4.94045
4.96072
4.97732
4.99022
4.99943
5.00495
5.0068
5.00502
4.99966
4.99077
4.97844
4.96278
4.94391
4.92199
4.89722
4.86979
4.83998
4.80806
4.77439
4.73933
4.7033
4.66675
4.63019
4.59411
4.55906
4.52556
4.49412
4.4652
4.43921
4.41645
4.39711
4.38122
4.36867
4.35916
4.35222
4.34724
4.34347
4.34008
4.33619
4.33094
4.32352
4.31322
4.29948
4.28189
4.26022
4.23439
4.20448
4.17067
4.13328
4.09269
4.04931
4.00361
3.95605
3.90709
3.85716
3.80668
3.75602
3.70552
3.65551
3.60626
3.55803
3.51106
3.46556
3.42169
3.37958
3.33932
3.3009
3.2645
0.0742028
0.118442
0.148922
0.171437
0.190225
0.207008
0.222618
0.237524
0.252015
0.266288
0.280478
0.294685
0.308985
0.323434
0.338077
0.35295
0.368081
0.383496
0.399215
0.415259
0.431645
0.44839
0.465512
0.483029
0.500957
0.519316
0.538124
0.557401
0.577168
0.597449
0.618265
0.639641
0.661604
0.684183
0.707406
0.731306
0.755916
0.78127
0.807405
0.834358
0.862168
0.890875
0.92052
0.951144
0.98279
1.0155
1.04932
1.08428
1.12044
1.15783
1.1965
1.23648
1.27782
1.32054
1.36469
1.41028
1.45733
1.50589
1.55596
1.60757
1.66074
1.71548
1.77179
1.82968
1.88915
1.9502
2.01282
2.077
2.14271
2.20994
2.27865
2.34882
2.4204
2.49336
2.56766
2.64326
2.72002
2.79783
2.87664
2.95635
3.03686
3.11807
3.19986
3.28209
3.36463
3.44733
3.53003
3.61258
3.6948
3.77653
3.85758
3.93778
4.01696
4.09493
4.17152
4.24655
4.31983
4.39111
4.46017
4.5268
4.59087
4.65221
4.71067
4.76608
4.81829
4.86716
4.91258
4.95442
4.99259
5.02699
5.05755
5.08419
5.10686
5.12552
5.14012
5.15064
5.15706
5.15938
5.15762
5.15179
5.14194
5.12814
5.11046
5.08903
5.06397
5.03545
5.00367
4.96887
4.93132
4.89136
4.84935
4.80572
4.76094
4.71554
4.67007
4.62515
4.58143
4.53954
4.50013
4.46384
4.43121
4.40273
4.37873
4.35942
4.34479
4.33464
4.32856
4.32592
4.32591
4.3276
4.32995
4.33189
4.33241
4.33058
4.32561
4.31689
4.30401
4.28673
4.26501
4.23896
4.2088
4.1749
4.13765
4.0975
4.05495
4.01046
3.9645
3.91751
3.8699
3.82205
3.77431
3.72699
3.68039
3.63477
3.59034
3.54732
3.50584
3.466
3.42783
3.39155
0.07493
0.118027
0.14841
0.170898
0.189643
0.206357
0.221875
0.236664
0.251018
0.265131
0.279142
0.293152
0.307239
0.321461
0.335866
0.350492
0.365371
0.380532
0.396
0.411796
0.427944
0.444463
0.461376
0.478704
0.496468
0.514691
0.533397
0.552609
0.572354
0.592658
0.613548
0.635052
0.6572
0.680024
0.70356
0.727843
0.752911
0.778802
0.805558
0.83322
0.86183
0.891432
0.922069
0.953788
0.986633
1.02065
1.05588
1.09237
1.13017
1.16931
1.20984
1.25181
1.29525
1.34023
1.38672
1.43476
1.48436
1.53556
1.58837
1.64281
1.6989
1.75663
1.81601
1.87704
1.93971
2.00401
2.06993
2.13744
2.20651
2.27713
2.34924
2.42282
2.49782
2.57419
2.65187
2.73079
2.81087
2.892
2.97409
3.05706
3.14079
3.22517
3.31007
3.39536
3.48089
3.56651
3.65206
3.73736
3.82224
3.90652
3.99002
4.07254
4.15388
4.23388
4.31233
4.389
4.46365
4.5361
4.60621
4.67382
4.73876
4.80085
4.85992
4.91578
4.96828
5.01725
5.06256
5.10406
5.14164
5.17518
5.20459
5.22978
5.25067
5.26721
5.27934
5.28703
5.29025
5.28898
5.28324
5.27304
5.25842
5.23945
5.21621
5.18881
5.1574
5.12216
5.0833
5.04106
4.99576
4.94773
4.89739
4.84519
4.79165
4.73734
4.6829
4.62901
4.57641
4.52585
4.47811
4.43397
4.39414
4.35929
4.32995
4.3065
4.28909
4.27768
4.27193
4.27125
4.27482
4.28161
4.29042
4.30002
4.30914
4.31661
4.32139
4.32264
4.31973
4.31223
4.29996
4.28291
4.26123
4.23522
4.20526
4.17179
4.13531
4.09629
4.05523
4.01261
3.96886
3.92441
3.87963
3.83487
3.79046
3.74669
3.7038
3.66202
3.62152
3.58241
3.54475
3.50881
0.0751658
0.116787
0.146866
0.169179
0.187756
0.204289
0.219607
0.234179
0.248299
0.262163
0.275912
0.289647
0.303448
0.317376
0.33148
0.345803
0.360381
0.375246
0.390425
0.405946
0.421834
0.438116
0.454818
0.471968
0.489593
0.50772
0.52638
0.545603
0.56542
0.585869
0.606987
0.628791
0.651321
0.674617
0.698721
0.723675
0.749522
0.776305
0.804072
0.832867
0.862737
0.893729
0.92589
0.959266
0.993903
1.02985
1.06715
1.10584
1.14597
1.18758
1.23071
1.27539
1.32166
1.36954
1.41906
1.47022
1.52305
1.57754
1.63372
1.69159
1.75115
1.81239
1.87531
1.93989
2.00611
2.07395
2.14339
2.21439
2.28692
2.36093
2.43638
2.51323
2.59141
2.67088
2.75156
2.83337
2.91624
3.00007
3.08476
3.17022
3.25632
3.34296
3.43
3.51731
3.60474
3.69212
3.77931
3.86612
3.95236
4.03785
4.12242
4.20584
4.28789
4.36836
4.44706
4.52385
4.59856
4.67102
4.74107
4.80854
4.87325
4.93502
4.99365
5.04896
5.10076
5.14887
5.19314
5.2334
5.26952
5.30137
5.32883
5.3518
5.37018
5.3839
5.3929
5.39712
5.39654
5.39113
5.38088
5.36583
5.346
5.32146
5.2923
5.25864
5.22064
5.17847
5.13236
5.08259
5.02946
4.97335
4.9147
4.85397
4.79174
4.7286
4.66524
4.60241
4.54092
4.48161
4.42538
4.37314
4.32577
4.2841
4.24888
4.22068
4.19988
4.18659
4.18063
4.1815
4.1884
4.20024
4.2157
4.23335
4.25169
4.26927
4.28478
4.2971
4.30535
4.3089
4.30738
4.30064
4.28873
4.27188
4.25042
4.22479
4.19547
4.16297
4.12779
4.09044
4.0514
4.01112
3.97001
3.92846
3.88681
3.8454
3.8045
3.76437
3.72518
3.6871
3.6502
3.61483
0.0750818
0.115068
0.144647
0.166631
0.184914
0.201157
0.216182
0.230456
0.244271
0.257826
0.271262
0.284683
0.29817
0.311785
0.325581
0.339605
0.3539
0.368508
0.383457
0.39877
0.414484
0.430634
0.447255
0.464379
0.482044
0.500283
0.519136
0.53864
0.558835
0.579763
0.601464
0.623979
0.647353
0.671631
0.696861
0.723092
0.750373
0.778754
0.808284
0.839013
0.870988
0.904258
0.938868
0.974863
1.01228
1.05117
1.09157
1.13351
1.17702
1.22214
1.26889
1.31729
1.36737
1.41913
1.47259
1.52773
1.58457
1.64308
1.70328
1.76514
1.82865
1.89378
1.96052
2.02884
2.09869
2.17004
2.24286
2.31711
2.39272
2.46967
2.54788
2.6273
2.70787
2.78953
2.87221
2.95582
3.04029
3.12552
3.21141
3.29788
3.38479
3.47205