/*--------------------------------*- C++ -*----------------------------------*\
| =========                 |                                                 |
| \\      /  F ield         | OpenFOAM: The Open Source CFD Toolbox           |
|  \\    /   O peration     | Version:  plus                                  |
|   \\  /    A nd           | Website:  www.openfoam.com                      |
|    \\/     M anipulation  |                                                 |
\*---------------------------------------------------------------------------*/
FoamFile
{
    version     2.0;
    format      ascii;
    class       volScalarField;
    location    "150";
    object      nut;
}
// * * * * * * * * * * * * * * * * * * * * * * * * * * * * * * * * * * * * * //

dimensions      [0 2 -1 0 0 0 0];


internalField   nonuniform List<scalar> 
12225
(
3.10726e-05
3.72804e-05
4.1063e-05
4.33129e-05
4.46053e-05
4.52984e-05
4.56162e-05
4.57005e-05
4.56417e-05
4.54969e-05
4.53028e-05
4.50824e-05
4.48505e-05
4.46164e-05
4.43859e-05
4.41623e-05
4.39451e-05
4.3757e-05
0.000115969
6.80788e-05
5.08346e-05
4.19921e-05
3.69403e-05
3.38463e-05
3.18539e-05
3.05299e-05
2.96384e-05
2.90414e-05
2.86539e-05
2.84207e-05
2.83044e-05
2.82789e-05
2.8325e-05
2.84284e-05
2.85724e-05
2.87271e-05
0.000369687
0.000222117
0.000160518
0.000126036
0.000104326
8.97039e-05
7.93249e-05
7.16449e-05
6.57737e-05
6.11684e-05
5.74816e-05
5.44818e-05
5.20089e-05
4.99491e-05
4.82182e-05
4.67482e-05
4.54691e-05
4.43853e-05
0.000643171
0.000474611
0.000372842
0.000307189
0.000262046
0.000229589
0.000205378
0.000186749
0.000172041
0.000160175
0.000150426
0.000142292
0.000135416
0.000129535
0.000124455
0.000120024
0.000116126
0.000112777
0.000782976
0.000684106
0.000595765
0.000524431
0.000467973
0.000423239
0.000387448
0.000358433
0.000334592
0.000314751
0.000298044
0.000283827
0.000271614
0.000261033
0.000251798
0.000243685
0.000236533
0.000230324
0.000831985
0.000790858
0.000741138
0.000691164
0.000644842
0.00060356
0.000567437
0.000536047
0.000508798
0.000485096
0.000464406
0.000446269
0.0004303
0.000416177
0.000403637
0.000392464
0.000382495
0.000373718
0.000846544
0.000832364
0.000810938
0.000785019
0.000757152
0.00072918
0.000702238
0.000676929
0.000653507
0.000632025
0.000612421
0.000594578
0.000578355
0.000563609
0.000550199
0.000538001
0.000526914
0.000516987
0.000850452
0.000846003
0.000838205
0.000827298
0.00081397
0.000799039
0.000783252
0.000767198
0.000751306
0.000735867
0.000721065
0.000707005
0.00069374
0.000681284
0.00066963
0.000658757
0.000648648
0.000639413
0.000851413
0.000849951
0.00084732
0.000843303
0.0008379
0.000831267
0.000823644
0.000815294
0.000806468
0.000797382
0.000788216
0.000779109
0.000770166
0.000761466
0.000753064
0.000744999
0.000737306
0.000730118
0.000851628
0.00085097
0.000849986
0.000848531
0.000846512
0.000843895
0.0008407
0.000836983
0.000832824
0.000828311
0.000823533
0.000818573
0.000813504
0.00080839
0.000803287
0.00079824
0.000793292
0.000788557
0.000851669
0.000851202
0.000850672
0.000850021
0.000849198
0.00084816
0.000846886
0.000845367
0.000843609
0.000841629
0.000839454
0.000837111
0.000834632
0.000832047
0.000829386
0.000826677
0.00082395
0.000821276
0.000851674
0.000851244
0.000850815
0.000850368
0.000849879
0.000849328
0.000848696
0.000847969
0.000847142
0.00084621
0.000845176
0.000844047
0.000842831
0.000841539
0.000840182
0.000838773
0.000837327
0.00083589
0.000851673
0.000851249
0.000850844
0.000850452
0.000850064
0.000849671
0.000849265
0.000848837
0.000848382
0.000847894
0.00084737
0.000846809
0.00084621
0.000845576
0.000844909
0.000844212
0.000843492
0.000842773
0.00085167
0.000851246
0.000850845
0.000850464
0.0008501
0.00084975
0.000849411
0.000849079
0.000848751
0.000848424
0.000848096
0.000847764
0.000847427
0.000847084
0.000846735
0.000846379
0.000846018
0.000845668
0.000851668
0.000851242
0.000850839
0.000850458
0.000850097
0.000849754
0.000849428
0.000849117
0.000848818
0.000848532
0.000848256
0.00084799
0.000847731
0.000847479
0.000847233
0.000846993
0.00084676
0.000846545
0.000851666
0.000851239
0.000850834
0.000850452
0.000850089
0.000849745
0.000849419
0.000849109
0.000848814
0.000848533
0.000848266
0.00084801
0.000847766
0.000847532
0.000847308
0.000847094
0.00084689
0.000846708
0.000851665
0.000851236
0.00085083
0.000850446
0.000850082
0.000849737
0.000849409
0.000849097
0.000848801
0.000848519
0.000848251
0.000847995
0.000847751
0.000847518
0.000847295
0.000847083
0.000846882
0.000846704
0.000851664
0.000851235
0.000850828
0.000850443
0.000850077
0.000849731
0.000849401
0.000849089
0.000848791
0.000848507
0.000848237
0.00084798
0.000847734
0.0008475
0.000847276
0.000847062
0.000846861
0.000846681
0.000851664
0.000851234
0.000850828
0.000850442
0.000850076
0.000849729
0.000849399
0.000849085
0.000848786
0.000848502
0.000848231
0.000847972
0.000847725
0.000847489
0.000847264
0.000847049
0.000846846
0.000846665
0.000851665
0.000851236
0.000850829
0.000850444
0.000850078
0.000849731
0.000849401
0.000849087
0.000848787
0.000848502
0.000848229
0.000847967
0.000847717
0.000847477
0.000847247
0.000847027
0.000846817
0.000846629
0.000851666
0.000851238
0.000850832
0.000850447
0.00085008
0.00084973
0.000849395
0.000849072
0.00084876
0.000848458
0.000848163
0.000847875
0.000847591
0.000847313
0.000847037
0.000846765
0.000846498
0.000846247
0.000851667
0.000851238
0.000850828
0.000850429
0.000850036
0.000849641
0.000849238
0.000848822
0.000848386
0.000847929
0.000847446
0.000846938
0.000846404
0.000845844
0.00084526
0.000844654
0.000844031
0.000843405
0.000851663
0.000851204
0.000850712
0.00085015
0.000849486
0.000848693
0.000847752
0.000846655
0.000845401
0.000843996
0.000842449
0.000840775
0.00083899
0.000837111
0.000835156
0.00083314
0.000831084
0.00082902
0.000851577
0.000850777
0.000849525
0.000847682
0.000845177
0.000842003
0.000838204
0.000833858
0.000829057
0.000823899
0.000818477
0.000812876
0.000807173
0.000801431
0.000795703
0.000790033
0.000784458
0.000779044
0.000850693
0.00084711
0.0008409
0.000832168
0.000821332
0.00080894
0.000795541
0.000781609
0.000767521
0.000753558
0.00073992
0.000726741
0.000714107
0.000702066
0.00069064
0.00067983
0.000669631
0.000660074
0.0008436
0.000823613
0.000795655
0.000763707
0.000730648
0.000698337
0.000667812
0.000639542
0.00061366
0.000590116
0.000568768
0.000549435
0.000531927
0.000516056
0.000501651
0.000488554
0.000476627
0.000465788
0.000798975
0.00071653
0.000637755
0.000570416
0.000514438
0.00046826
0.000430085
0.000398303
0.000371614
0.000349006
0.000329695
0.000313069
0.00029865
0.00028606
0.000275001
0.000265232
0.000256564
0.000248854
0.000605337
0.000437552
0.000341979
0.000280294
0.000237304
0.000206014
0.000182458
0.000164218
0.000149767
0.000138099
0.000128527
0.000120567
0.00011387
0.000108176
0.000103293
9.90746e-05
9.5411e-05
9.22321e-05
0.000228403
0.000138563
0.000102674
8.24784e-05
6.96515e-05
6.10113e-05
5.49326e-05
5.05102e-05
4.7209e-05
4.46954e-05
4.27512e-05
4.12291e-05
4.00263e-05
3.90694e-05
3.8305e-05
3.76934e-05
3.72052e-05
3.68229e-05
3.56041e-05
4.09355e-05
4.47624e-05
4.75227e-05
4.97549e-05
5.15316e-05
5.29223e-05
5.39915e-05
5.47966e-05
5.53873e-05
5.58059e-05
5.60872e-05
5.62598e-05
5.63471e-05
5.63679e-05
5.63373e-05
5.62677e-05
5.61679e-05
4.91589e-06
1.29442e-05
1.44769e-05
1.56999e-05
1.68696e-05
1.80007e-05
1.92944e-05
2.05972e-05
2.19216e-05
2.3241e-05
2.4535e-05
2.57942e-05
2.70154e-05
2.81987e-05
2.93456e-05
3.0458e-05
3.15384e-05
3.25891e-05
3.36123e-05
3.46106e-05
3.5586e-05
3.65408e-05
3.74772e-05
3.83972e-05
3.93029e-05
4.01964e-05
4.10797e-05
4.1955e-05
4.28247e-05
4.36911e-05
4.45573e-05
4.54264e-05
4.63026e-05
4.72092e-05
4.8118e-05
4.90283e-05
4.99405e-05
5.08553e-05
5.17734e-05
5.26952e-05
5.3621e-05
5.45512e-05
5.54861e-05
5.64257e-05
5.73703e-05
5.83198e-05
5.92744e-05
6.02338e-05
6.11981e-05
6.21672e-05
6.31407e-05
6.41185e-05
6.51004e-05
6.6086e-05
6.70751e-05
6.80671e-05
6.90619e-05
7.00588e-05
7.10576e-05
7.20576e-05
7.30584e-05
7.40594e-05
7.50602e-05
7.60601e-05
7.70585e-05
7.80548e-05
7.90484e-05
8.00385e-05
8.10247e-05
8.20061e-05
8.29821e-05
8.39519e-05
8.49149e-05
8.58703e-05
8.68174e-05
8.77556e-05
8.8684e-05
8.96019e-05
9.05087e-05
9.14037e-05
9.22861e-05
9.31553e-05
9.40107e-05
9.48517e-05
9.56777e-05
9.6488e-05
9.72823e-05
9.80599e-05
9.88204e-05
9.95633e-05
0.000100288
0.000100995
0.000101683
0.000102352
0.000103002
0.000103632
0.000104243
0.000104834
0.000105405
0.000105957
0.000106489
0.000107002
0.000107495
0.000107969
0.000108425
0.000108862
0.000109283
0.000109688
0.000110079
0.000110471
0.000110848
0.000111209
0.000111557
0.000111891
0.000112212
0.00011252
0.000112816
0.000113099
0.00011337
0.000113628
0.000113874
0.000114107
0.000114327
0.000114534
0.000114728
0.000114907
0.000115073
0.000115223
0.000115359
0.000115478
0.000115581
0.000115666
0.000115733
0.00011578
0.000115807
0.000115812
0.000115794
0.000115751
0.000115681
0.000115583
0.000115453
0.000115289
0.000115087
0.000114846
0.000114555
0.000114209
0.000113854
0.000113394
0.000112716
0.000112232
0.000111692
0.000109779
0.000108845
0.000108492
0.000108152
0.000107753
0.000107285
0.000106747
0.000106143
0.000105477
0.000104756
0.000103984
0.000103169
0.000102316
0.000101432
0.000100524
9.95965e-05
9.86554e-05
9.77054e-05
9.67503e-05
9.57934e-05
9.48366e-05
9.38804e-05
9.29232e-05
9.19599e-05
9.09793e-05
8.9958e-05
8.88522e-05
8.75673e-05
8.60021e-05
7.05944e-06
4.05517e-05
7.7106e-05
0.000100029
0.00011265
0.000120047
0.000125176
0.000129768
0.000134487
0.000139527
0.000144909
0.000150594
0.00015653
0.000162668
0.000168966
0.000175387
0.000181899
0.000188473
0.000195087
0.000201721
0.000208357
0.00021498
0.000221578
0.000228143
0.000234665
0.000241139
0.000247558
0.000253918
0.000260216
0.000266449
0.000272618
0.000278727
0.000284787
0.000290825
0.00029686
0.000302906
0.000308975
0.000315079
0.000321226
0.000327427
0.00033369
0.000340022
0.000346431
0.000352922
0.000359504
0.000366179
0.000372954
0.000379833
0.00038682
0.000393916
0.000401126
0.000408451
0.000415892
0.00042345
0.000431126
0.000438919
0.000446829
0.000454854
0.000462992
0.000471241
0.000479598
0.00048806
0.000496623
0.000505281
0.000514032
0.000522868
0.000531784
0.000540774
0.000549831
0.000558947
0.000568114
0.000577325
0.000586571
0.000595844
0.000605133
0.00061443
0.000623726
0.00063301
0.000642273
0.000651505
0.000660697
0.00066984
0.000678925
0.000687943
0.000696886
0.000705747
0.000714519
0.000723195
0.00073177
0.000740238
0.000748594
0.000756835
0.000764955
0.000772952
0.000780823
0.000788567
0.000796184
0.000803673
0.000811035
0.000818272
0.000825382
0.000832364
0.000839214
0.000845926
0.000852492
0.000858904
0.000865151
0.000871222
0.000876908
0.000882204
0.000887398
0.000892541
0.000897654
0.000902753
0.000907852
0.000912963
0.000918098
0.000923268
0.000928483
0.000933752
0.000939083
0.000944482
0.000949956
0.000955508
0.000961141
0.000966854
0.000972647
0.000978516
0.000984456
0.000990459
0.000996515
0.00100261
0.00100873
0.00101484
0.00102094
0.00102698
0.00103293
0.00103876
0.00104443
0.00104988
0.00105506
0.00105991
0.00106437
0.00106838
0.00107185
0.00107469
0.00107699
0.00107864
0.00107886
0.00107852
0.00107832
0.00107263
0.00106364
0.00105343
0.00104228
0.00103035
0.00101774
0.00100456
0.000990891
0.00097683
0.000962463
0.000947878
0.000933159
0.000918386
0.000903634
0.000888972
0.000874459
0.00086015
0.000846089
0.000832313
0.000818847
0.000805707
0.000792894
0.000780393
0.000768158
0.000756095
0.000744001
0.000731278
0.000712476
0.000678819
8.61505e-06
6.46751e-05
0.000124556
0.000167076
0.000195762
0.000215515
0.000230168
0.000242328
0.000253537
0.000264598
0.000275875
0.000287492
0.000299462
0.000311745
0.000324285
0.000337022
0.000349901
0.000362871
0.000375886
0.000388907
0.000401904
0.000414849
0.000427722
0.000440507
0.000453193
0.000465773
0.000478245
0.00049061
0.000502873
0.000515042
0.000527132
0.00053916
0.000551149
0.000563123
0.000575109
0.000587129
0.000599204
0.000611356
0.000623602
0.000635962
0.000648452
0.000661088
0.000673886
0.00068686
0.000700021
0.000713381
0.000726951
0.00074074
0.000754755
0.000769003
0.000783491
0.000798221
0.000813198
0.000828423
0.000843897
0.000859619
0.00087559
0.000891805
0.000908261
0.000924954
0.000941879
0.000959027
0.000976391
0.000993963
0.00101173
0.00102969
0.00104782
0.00106611
0.00108454
0.00110311
0.0011218
0.00114059
0.00115946
0.00117839
0.00119737
0.00121637
0.00123538
0.00125438
0.00127335
0.00129226
0.00131109
0.00132983
0.00134846
0.00136695
0.00138529
0.00140346
0.00142145
0.00143923
0.00145679
0.00147412
0.00149121
0.00150803
0.00152458
0.00154085
0.00155683
0.0015725
0.00158787
0.00160292
0.00161765
0.00163205
0.00164612
0.00165984
0.00167321
0.00168621
0.00169884
0.00171108
0.00172292
0.00173432
0.00174499
0.00175524
0.00176522
0.00177502
0.00178466
0.00179418
0.0018036
0.00181295
0.00182225
0.00183153
0.00184081
0.00185011
0.00185944
0.00186883
0.0018783
0.00188785
0.00189749
0.00190725
0.00191712
0.0019271
0.0019372
0.00194742
0.00195774
0.00196814
0.00197861
0.00198912
0.00199962
0.00201008
0.00202042
0.00203059
0.0020405
0.00205007
0.00205918
0.00206772
0.00207555
0.00208257
0.0020886
0.00209351
0.00209723
0.00209974
0.00210037
0.00209954
0.00209753
0.00209098
0.00208022
0.00206675
0.00205122
0.00203398
0.00201525
0.00199521
0.00197404
0.00195191
0.00192898
0.00190544
0.00188144
0.00185715
0.00183271
0.00180827
0.00178393
0.00175982
0.00173602
0.00171261
0.00168964
0.00166714
0.00164511
0.0016235
0.00160221
0.00158101
0.00155939
0.00153596
0.00150392
0.0014547
9.77149e-06
8.22548e-05
0.000161167
0.000221375
0.000265334
0.000297814
0.000322897
0.00034362
0.000362042
0.000379442
0.000396547
0.000413721
0.000431119
0.000448778
0.000466676
0.000484764
0.000502984
0.00052128
0.000539597
0.000557892
0.000576124
0.000594264
0.000612288
0.00063018
0.00064793
0.000665536
0.000682999
0.000700328
0.000717534
0.000734635
0.000751652
0.000768609
0.000785534
0.000802455
0.000819401
0.0008364
0.000853481
0.00087067
0.000887993
0.000905476
0.000923142
0.000941014
0.000959112
0.000977456
0.000996064
0.00101495
0.00103413
0.00105362
0.00107343
0.00109357
0.00111404
0.00113486
0.00115602
0.00117752
0.00119938
0.00122159
0.00124415
0.00126705
0.00129028
0.00131385
0.00133775
0.00136195
0.00138646
0.00141126
0.00143633
0.00146166
0.00148724
0.00151304
0.00153904
0.00156523
0.00159158
0.00161807
0.00164467
0.00167137
0.00169812
0.00172491
0.0017517
0.00177847
0.00180519
0.00183183
0.00185836
0.00188475
0.00191097
0.001937
0.0019628
0.00198835
0.00201361
0.00203858
0.00206321
0.00208749
0.00211139
0.0021349
0.00215799
0.00218064
0.00220283
0.00222455
0.00224578
0.00226651
0.00228672
0.00230641
0.00232555
0.00234413
0.00236215
0.00237959
0.00239644
0.0024127
0.00242839
0.00244323
0.00245734
0.00247092
0.00248408
0.00249689
0.00250939
0.00252162
0.00253364
0.00254546
0.00255714
0.0025687
0.00258017
0.0025916
0.00260302
0.00261446
0.00262595
0.00263752
0.00264921
0.00266104
0.00267304
0.00268522
0.00269761
0.00271021
0.00272305
0.00273611
0.00274938
0.00276286
0.0027765
0.00279026
0.00280409
0.0028179
0.0028316
0.00284507
0.00285818
0.00287077
0.00288267
0.0028937
0.00290367
0.00291238
0.00291965
0.00292526
0.00292884
0.00293036
0.00292963
0.00292503
0.00291638
0.00290441
0.00288963
0.0028724
0.00285298
0.00283158
0.00280844
0.00278376
0.00275779
0.00273073
0.00270283
0.00267428
0.00264531
0.0026161
0.00258682
0.00255763
0.00252866
0.00250002
0.00247178
0.002444
0.00241667
0.00238976
0.00236312
0.00233645
0.00230911
0.00227941
0.00224159
0.00219055
1.10157e-05
9.32999e-05
0.000189118
0.000265922
0.000324504
0.000369455
0.000405004
0.000434461
0.000460225
0.000483929
0.000506608
0.000528875
0.00055106
0.000573317
0.000595696
0.000618191
0.000640766
0.000663376
0.000685973
0.000708513
0.000730958
0.000753276
0.000775447
0.000797454
0.000819291
0.000840956
0.000862456
0.000883803
0.000905012
0.000926105
0.000947106
0.000968045
0.00098895
0.00100985
0.00103079
0.00105179
0.00107288
0.0010941
0.00111548
0.00113705
0.00115884
0.00118087
0.00120317
0.00122577
0.00124868
0.00127193
0.00129553
0.0013195
0.00134386
0.00136861
0.00139376
0.00141933
0.00144532
0.00147173
0.00149856
0.00152581
0.00155348
0.00158157
0.00161006
0.00163896
0.00166824
0.0016979
0.00172793
0.0017583
0.00178901
0.00182002
0.00185133
0.00188291
0.00191474
0.00194678
0.00197902
0.00201142
0.00204396
0.00207661
0.00210932
0.00214208
0.00217484
0.00220757
0.00224023
0.00227279
0.0023052
0.00233744
0.00236946
0.00240124
0.00243272
0.00246388
0.00249467
0.00252507
0.00255505
0.00258456
0.00261357
0.00264206
0.00267
0.00269736
0.00272412
0.00275024
0.00277571
0.0028005
0.00282459
0.00284796
0.00287061
0.0028925
0.00291362
0.00293396
0.00295352
0.00297228
0.00299022
0.00300715
0.00302325
0.00303866
0.00305349
0.00306778
0.0030816
0.003095
0.00310803
0.00312073
0.00313316
0.00314535
0.00315736
0.00316925
0.00318105
0.00319283
0.00320464
0.00321652
0.00322855
0.00324076
0.0032532
0.00326594
0.00327901
0.00329245
0.00330631
0.00332062
0.00333539
0.00335063
0.00336634
0.00338249
0.00339904
0.00341592
0.00343304
0.00345028
0.00346749
0.00348449
0.00350111
0.00351706
0.00353222
0.00354608
0.00355849
0.00356915
0.00357771
0.00358393
0.00358741
0.00358734
0.00358344
0.00357598
0.00356524
0.00355149
0.00353497
0.00351589
0.00349449
0.00347102
0.00344573
0.00341888
0.00339073
0.00336155
0.00333158
0.00330106
0.0032702
0.00323919
0.00320819
0.00317735
0.00314677
0.00311652
0.00308663
0.00305707
0.00302769
0.00299819
0.00296791
0.00293529
0.00289604
0.00284765
1.20752e-05
0.000100947
0.000210676
0.000302318
0.000374514
0.000431386
0.000477143
0.000515242
0.000548304
0.000578216
0.000606266
0.000633289
0.000659794
0.00068607
0.000712264
0.000738435
0.00076459
0.000790711
0.000816767
0.000842725
0.000868552
0.000894224
0.000919719
0.000945026
0.000970139
0.00099506
0.0010198
0.00104436
0.00106877
0.00109306
0.00111724
0.00114135
0.00116541
0.00118947
0.00121356
0.00123771
0.00126197
0.00128635
0.00131091
0.00133567
0.00136066
0.00138592
0.00141148
0.00143736
0.00146359
0.00149018
0.00151718
0.00154458
0.00157241
0.00160068
0.0016294
0.00165859
0.00168824
0.00171836
0.00174895
0.00178002
0.00181156
0.00184356
0.00187603
0.00190894
0.00194229
0.00197606
0.00201024
0.00204482
0.00207976
0.00211507
0.0021507
0.00218663
0.00222284
0.00225931
0.00229599
0.00233286
0.00236989
0.00240703
0.00244426
0.00248154
0.00251882
0.00255607
0.00259324
0.0026303
0.00266719
0.00270388
0.00274032
0.00277646
0.00281226
0.00284768
0.00288268
0.0029172
0.00295121
0.00298466
0.00301752
0.00304974
0.00308129
0.00311213
0.00314222
0.00317154
0.00320005
0.00322772
0.00325452
0.00328043
0.00330543
0.00332948
0.00335258
0.00337471
0.00339586
0.00341602
0.00343502
0.00345293
0.00346987
0.00348595
0.00350125
0.00351583
0.00352975
0.00354306
0.00355583
0.00356811
0.00357996
0.00359144
0.00360262
0.00361356
0.00362434
0.00363502
0.00364569
0.00365643
0.00366731
0.00367843
0.00368985
0.00370168
0.00371399
0.00372686
0.00374038
0.00375462
0.00376963
0.00378547
0.00380218
0.00381976
0.00383821
0.0038575
0.00387755
0.00389825
0.00391949
0.00394101
0.00396276
0.00398418
0.00400507
0.00402506
0.00404384
0.00406103
0.00407624
0.00408907
0.00409909
0.00410573
0.00410869
0.00410796
0.00410364
0.00409589
0.00408487
0.00407076
0.0040538
0.00403422
0.00401229
0.00398829
0.00396253
0.00393527
0.00390681
0.00387742
0.00384733
0.00381678
0.00378596
0.00375504
0.00372416
0.00369342
0.00366285
0.00363247
0.00360216
0.00357165
0.00354035
0.00350699
0.00346864
0.003424
1.29601e-05
0.000106304
0.000227192
0.000331693
0.000416215
0.00048419
0.000539659
0.000586109
0.000626287
0.000662254
0.000695488
0.00072701
0.000757495
0.000787366
0.000816876
0.000846163
0.000875292
0.000904284
0.000933135
0.000961832
0.000990354
0.00101868
0.00104681
0.00107472
0.00110241
0.00112989
0.00115717
0.00118425
0.00121117
0.00123794
0.00126459
0.00129115
0.00131766
0.00134415
0.00137066
0.00139723
0.00142389
0.00145067
0.00147763
0.00150479
0.0015322
0.00155987
0.00158786
0.00161618
0.00164486
0.00167394
0.00170343
0.00173335
0.00176373
0.00179457
0.0018259
0.00185772
0.00189004
0.00192286
0.0019562
0.00199004
0.00202439
0.00205924
0.00209458
0.00213041
0.00216671
0.00220348
0.00224069
0.00227832
0.00231637
0.0023548
0.00239359
0.00243273
0.00247217
0.00251188
0.00255185
0.00259203
0.00263239
0.0026729
0.0027135
0.00275417
0.00279486
0.00283552
0.0028761
0.00291657
0.00295688
0.00299696
0.00303678
0.00307628
0.0031154
0.00315411
0.00319233
0.00323003
0.00326715
0.00330364
0.00333944
0.00337452
0.00340882
0.00344229
0.0034749
0.00350659
0.00353733
0.00356709
0.00359581
0.00362348
0.00365005
0.0036755
0.00369981
0.00372294
0.00374489
0.0037656
0.00378496
0.00380307
0.00382005
0.00383596
0.00385088
0.00386486
0.00387798
0.00389028
0.00390184
0.00391271
0.00392298
0.0039327
0.00394197
0.00395086
0.00395947
0.00396789
0.00397623
0.00398458
0.00399307
0.00400181
0.00401092
0.00402053
0.00403078
0.00404178
0.00405367
0.00406658
0.00408061
0.00409588
0.00411249
0.0041305
0.00414995
0.00417087
0.00419323
0.0042169
0.00424193
0.00426787
0.00429455
0.00432162
0.00434878
0.00437561
0.00440171
0.00442662
0.00444986
0.00447093
0.00448932
0.00450451
0.00451613
0.004524
0.00452805
0.0045283
0.00452483
0.00451779
0.00450734
0.00449373
0.00447722
0.0044581
0.00443667
0.00441325
0.00438816
0.00436167
0.00433409
0.00430565
0.0042766
0.00424712
0.00421739
0.00418754
0.00415764
0.00412773
0.00409775
0.00406747
0.00403645
0.00400368
0.00396739
0.00392649
1.36947e-05
0.000109943
0.000239557
0.000354925
0.000450332
0.000528404
0.000592896
0.000647231
0.000694202
0.000735975
0.000774167
0.000809943
0.000844118
0.00087724
0.000909667
0.000941618
0.000973223
0.00100455
0.00103564
0.00106649
0.00109711
0.00112749
0.00115762
0.00118751
0.00121716
0.00124656
0.00127574
0.00130471
0.00133348
0.00136209
0.00139056
0.00141893
0.00144722
0.00147548
0.00150374
0.00153203
0.00156041
0.00158891
0.00161757
0.00164642
0.00167551
0.00170487
0.00173453
0.00176453
0.0017949
0.00182567
0.00185686
0.00188849
0.0019206
0.00195318
0.00198626
0.00201986
0.00205397
0.00208862
0.00212379
0.0021595
0.00219574
0.0022325
0.00226979
0.0023076
0.00234591
0.00238471
0.00242399
0.00246373
0.00250391
0.00254451
0.00258551
0.00262688
0.00266859
0.00271062
0.00275293
0.00279548
0.00283826
0.0028812
0.00292428
0.00296745
0.00301067
0.00305389
0.00309706
0.00314013
0.00318304
0.00322575
0.00326819
0.0033103
0.00335204
0.00339333
0.00343413
0.00347435
0.00351395
0.00355287
0.00359104
0.0036284
0.0036649
0.00370047
0.00373507
0.00376864
0.00380112
0.00383248
0.00386265
0.0038916
0.00391929
0.00394568
0.00397073
0.00399442
0.00401671
0.00403747
0.00405673
0.00407459
0.0040911
0.00410632
0.00412032
0.00413316
0.00414488
0.00415557
0.00416527
0.00417406
0.00418203
0.00418926
0.00419583
0.00420185
0.00420743
0.00421268
0.00421773
0.00422271
0.00422778
0.00423308
0.00423878
0.00424504
0.00425205
0.00426
0.00426906
0.00427944
0.00429131
0.00430484
0.00432021
0.0043376
0.00435704
0.00437868
0.00440262
0.0044286
0.00445664
0.0044865
0.00451797
0.00455073
0.00458441
0.00461857
0.00465272
0.0046863
0.00471872
0.00474938
0.00477768
0.00480301
0.00482491
0.00484303
0.00485714
0.00486713
0.00487299
0.00487476
0.00487259
0.00486666
0.00485724
0.00484462
0.0048291
0.00481103
0.00479074
0.00476855
0.00474478
0.00471971
0.00469361
0.0046667
0.0046392
0.00461125
0.00458299
0.00455448
0.0045257
0.00449653
0.00446661
0.00443523
0.00440125
0.00436398
1.43002e-05
0.000112225
0.000248423
0.000372726
0.000477507
0.000564542
0.000637219
0.000698821
0.000752124
0.000799347
0.000842193
0.000881936
0.000919504
0.000955551
0.00099053
0.00102474
0.00105838
0.00109157
0.00112438
0.00115686
0.00118903
0.00122089
0.00125246
0.00128374
0.00131474
0.00134547
0.00137594
0.00140618
0.00143619
0.00146602
0.00149569
0.00152522
0.00155466
0.00158404
0.00161341
0.00164279
0.00167223
0.00170178
0.00173146
0.00176133
0.00179142
0.00182177
0.00185241
0.00188339
0.00191473
0.00194646
0.00197861
0.00201121
0.00204428
0.00207784
0.00211191
0.00214649
0.00218161
0.00221727
0.00225348
0.00229024
0.00232756
0.00236542
0.00240383
0.00244279
0.00248228
0.00252229
0.00256281
0.00260382
0.00264531
0.00268726
0.00272965
0.00277245
0.00281564
0.00285919
0.00290307
0.00294725
0.00299168
0.00303634
0.00308119
0.00312617
0.00317124
0.00321636
0.00326148
0.00330653
0.00335147
0.00339623
0.00344076
0.00348498
0.00352884
0.00357226
0.00361517
0.00365751
0.00369921
0.00374019
0.00378038
0.0038197
0.0038581
0.00389549
0.00393182
0.00396701
0.004001
0.00403373
0.00406514
0.00409517
0.00412378
0.0041509
0.00417651
0.00420054
0.00422292
0.00424359
0.00426261
0.00428001
0.00429584
0.00431015
0.00432299
0.00433441
0.00434446
0.0043532
0.0043607
0.00436703
0.00437229
0.00437656
0.00437995
0.00438256
0.00438453
0.00438598
0.00438707
0.00438795
0.00438882
0.00438984
0.00439123
0.00439321
0.004396
0.00439984
0.00440501
0.00441175
0.00442031
0.00443095
0.00444395
0.00445961
0.00447797
0.00449924
0.00452354
0.00455085
0.00458116
0.00461434
0.0046502
0.00468843
0.00472865
0.00477037
0.00481303
0.00485597
0.00489849
0.00493987
0.00497935
0.00501622
0.00504985
0.00507972
0.00510545
0.00512677
0.00514353
0.00515571
0.00516336
0.00516663
0.00516576
0.00516103
0.00515276
0.00514129
0.005127
0.00511023
0.00509133
0.00507062
0.00504841
0.00502495
0.00500049
0.00497522
0.00494932
0.00492289
0.00489597
0.00486849
0.00484023
0.00481069
0.00477914
0.00474517
1.47932e-05
0.000113402
0.000254298
0.000385692
0.000498311
0.000593088
0.000672992
0.000741114
0.000800161
0.000852356
0.000899453
0.0009428
0.000983408
0.00102202
0.00105917
0.00109524
0.00113047
0.00116506
0.00119911
0.00123269
0.00126586
0.00129865
0.00133108
0.00136317
0.00139493
0.00142638
0.00145753
0.00148842
0.00151906
0.00154947
0.0015797
0.00160977
0.00163972
0.00166959
0.00169941
0.00172923
0.00175908
0.00178901
0.00181906
0.00184928
0.0018797
0.00191036
0.0019413
0.00197256
0.00200417
0.00203616
0.00206857
0.00210142
0.00213474
0.00216855
0.00220287
0.00223772
0.0022731
0.00230904
0.00234555
0.00238262
0.00242026
0.00245848
0.00249728
0.00253664
0.00257657
0.00261706
0.00265809
0.00269967
0.00274176
0.00278437
0.00282746
0.00287102
0.00291502
0.00295945
0.00300426
0.00304944
0.00309494
0.00314074
0.00318679
0.00323304
0.00327946
0.003326
0.00337259
0.00341919
0.00346574
0.00351217
0.00355841
0.0036044
0.00365007
0.00369534
0.00374012
0.00378435
0.00382794
0.0038708
0.00391286
0.00395402
0.00399421
0.00403334
0.00407133
0.0041081
0.00414356
0.00417765
0.00421029
0.00424141
0.00427094
0.00429882
0.00432499
0.00434938
0.00437192
0.0043926
0.00441143
0.00442843
0.00444362
0.00445705
0.00446874
0.00447873
0.00448707
0.00449382
0.00449905
0.00450282
0.00450523
0.00450638
0.00450636
0.00450532
0.00450337
0.00450068
0.00449741
0.00449374
0.00448988
0.00448605
0.00448249
0.00447947
0.00447726
0.00447616
0.0044765
0.00447865
0.00448289
0.00448957
0.00449904
0.00451165
0.00452765
0.0045473
0.00457084
0.00459838
0.00462999
0.00466564
0.00470519
0.00474839
0.00479485
0.00484407
0.00489541
0.00494812
0.0050014
0.00505434
0.00510606
0.00515565
0.00520231
0.00524532
0.0052841
0.00531821
0.00534737
0.00537142
0.00539033
0.00540419
0.0054132
0.00541762
0.00541778
0.00541404
0.00540678
0.0053964
0.00538328
0.00536777
0.00535022
0.00533093
0.00531018
0.00528822
0.00526525
0.00524142
0.00521684
0.0051915
0.00516528
0.00513785
0.00510874
0.00507776
1.51866e-05
0.000113665
0.000257594
0.000394333
0.000513248
0.000614479
0.000700552
0.000774326
0.000838401
0.000894965
0.000945791
0.000992269
0.00103547
0.00107622
0.0011151
0.00115256
0.00118892
0.0012244
0.00125916
0.00129331
0.00132692
0.00136005
0.00139274
0.00142501
0.00145691
0.00148844
0.00151963
0.00155052
0.00158112
0.00161146
0.00164159
0.00167152
0.00170131
0.00173098
0.00176059
0.00179016
0.00181974
0.00184937
0.00187911
0.00190898
0.00193904
0.00196932
0.00199986
0.00203071
0.0020619
0.00209345
0.00212542
0.00215782
0.00219069
0.00222405
0.00225792
0.00229233
0.00232729
0.00236281
0.00239892
0.00243562
0.00247291
0.00251082
0.00254933
0.00258844
0.00262817
0.0026685
0.00270943
0.00275095
0.00279306
0.00283573
0.00287896
0.00292273
0.00296701
0.0030118
0.00305706
0.00310276
0.00314888
0.00319537
0.00324221
0.00328935
0.00333675
0.00338436
0.00343211
0.00347997
0.00352786
0.00357571
0.00362346
0.00367104
0.00371835
0.00376533
0.00381189
0.00385792
0.00390335
0.00394808
0.003992
0.00403503
0.00407705
0.00411799
0.00415773
0.00419618
0.00423324
0.00426883
0.00430285
0.00433522
0.00436585
0.00439467
0.0044216
0.00444659
0.00446959
0.00449054
0.00450945
0.0045263
0.00454111
0.00455388
0.00456465
0.00457343
0.00458027
0.00458522
0.00458833
0.00458968
0.00458936
0.00458746
0.0045841
0.00457941
0.00457353
0.00456662
0.00455887
0.00455047
0.00454166
0.00453266
0.00452378
0.00451532
0.0045076
0.00450096
0.00449578
0.00449248
0.00449146
0.00449314
0.00449797
0.00450639
0.0045188
0.00453559
0.0045571
0.00458363
0.00461535
0.00465237
0.00469463
0.00474197
0.00479403
0.00485031
0.00491015
0.00497271
0.00503705
0.00510214
0.00516687
0.00523016
0.00529097
0.00534835
0.00540151
0.00544979
0.00549274
0.00553005
0.00556157
0.00558734
0.00560747
0.00562223
0.00563193
0.00563694
0.00563768
0.00563458
0.00562804
0.00561848
0.00560627
0.00559178
0.00557533
0.00555719
0.00553763
0.00551685
0.005495
0.00547214
0.00544823
0.00542308
0.00539641
0.00536818
1.54908e-05
0.000113164
0.000258655
0.000399088
0.000522763
0.000629098
0.000720181
0.000798614
0.000866858
0.000927044
0.00098093
0.00102993
0.00107516
0.00111747
0.00115754
0.00119584
0.00123276
0.00126855
0.00130342
0.00133751
0.00137092
0.00140374
0.00143601
0.0014678
0.00149913
0.00153004
0.00156056
0.00159072
0.00162056
0.0016501
0.00167939
0.00170846
0.00173734
0.00176609
0.00179473
0.00182332
0.0018519
0.0018805
0.00190918
0.00193799
0.00196695
0.00199613
0.00202556
0.00205527
0.00208532
0.00211574
0.00214656
0.00217782
0.00220955