/*--------------------------------*- C++ -*----------------------------------*\
| =========                 |                                                 |
| \\      /  F ield         | OpenFOAM: The Open Source CFD Toolbox           |
|  \\    /   O peration     | Version:  plus                                  |
|   \\  /    A nd           | Website:  www.openfoam.com                      |
|    \\/     M anipulation  |                                                 |
\*---------------------------------------------------------------------------*/
FoamFile
{
    version     2.0;
    format      ascii;
    class       volScalarField;
    location    "150";
    object      p;
}
// * * * * * * * * * * * * * * * * * * * * * * * * * * * * * * * * * * * * * //

dimensions      [0 2 -2 0 0 0 0];


internalField   nonuniform List<scalar> 
12225
(
-0.147751
-2.57299
-3.44346
-3.70126
-3.86152
-4.00338
-4.122
-4.22048
-4.30655
-4.38536
-4.45939
-4.53
-4.59825
-4.66501
-4.73087
-4.79566
-4.85499
-4.84867
-3.52325
-3.95733
-4.16009
-4.14878
-4.1548
-4.20096
-4.2593
-4.31843
-4.37783
-4.43804
-4.49879
-4.55975
-4.62087
-4.68228
-4.74419
-4.80683
-4.87423
-4.98822
-3.6254
-3.49267
-3.68667
-3.80246
-3.90009
-4.00888
-4.1136
-4.20735
-4.29237
-4.37158
-4.44656
-4.51825
-4.58751
-4.65519
-4.72216
-4.7899
-4.86401
-4.96549
-3.49825
-3.45165
-3.71291
-3.88584
-3.99684
-4.09878
-4.1925
-4.27517
-4.34983
-4.41975
-4.48665
-4.55144
-4.61483
-4.67756
-4.74045
-4.80504
-4.8753
-4.95928
-3.51919
-3.54925
-3.76997
-3.92
-4.01376
-4.1009
-4.18527
-4.26307
-4.33544
-4.40446
-4.47124
-4.53634
-4.60023
-4.66348
-4.72682
-4.79146
-4.85965
-4.93339
-3.58352
-3.62612
-3.79456
-3.92616
-4.01722
-4.10259
-4.18621
-4.2644
-4.33742
-4.4069
-4.47384
-4.53883
-4.60235
-4.66495
-4.72727
-4.79016
-4.85462
-4.92032
-3.6413
-3.68035
-3.81401
-3.93494
-4.02627
-4.11041
-4.19204
-4.26878
-4.34067
-4.40906
-4.47492
-4.53879
-4.60114
-4.66243
-4.72312
-4.78367
-4.84427
-4.90365
-3.69293
-3.72865
-3.83836
-3.94858
-4.0376
-4.11898
-4.19766
-4.27229
-4.34273
-4.40994
-4.47472
-4.53755
-4.5988
-4.65879
-4.7178
-4.77598
-4.83308
-4.88765
-3.74182
-3.77458
-3.86552
-3.96422
-4.04914
-4.12732
-4.203
-4.27546
-4.34437
-4.41034
-4.47397
-4.53563
-4.59561
-4.65411
-4.71124
-4.76696
-4.82082
-4.8715
-3.78827
-3.8177
-3.89356
-3.98114
-4.06116
-4.13599
-4.20864
-4.27877
-4.34594
-4.41044
-4.47271
-4.53301
-4.59153
-4.64836
-4.7035
-4.75678
-4.80772
-4.85522
-3.83195
-3.85788
-3.92172
-3.99919
-4.07387
-4.14511
-4.21465
-4.28225
-4.34744
-4.41028
-4.471
-4.52977
-4.58668
-4.64172
-4.69483
-4.74578
-4.7941
-4.83895
-3.86935
-3.89224
-3.94724
-4.01643
-4.08602
-4.15377
-4.22037
-4.28554
-4.34876
-4.40992
-4.46908
-4.52632
-4.58164
-4.63499
-4.68625
-4.73516
-4.78135
-4.82407
-3.90377
-3.92404
-3.97177
-4.03365
-4.09826
-4.16248
-4.22614
-4.28883
-4.35
-4.40938
-4.46691
-4.52255
-4.57625
-4.6279
-4.67736
-4.72438
-4.76863
-4.80961
-3.93962
-3.95733
-3.99831
-4.05297
-4.11218
-4.17236
-4.23267
-4.29251
-4.35126
-4.40852
-4.4641
-4.51785
-4.56966
-4.61938
-4.66686
-4.71189
-4.75419
-4.79346
-3.9755
-3.99076
-4.02574
-4.07362
-4.12723
-4.18301
-4.23964
-4.2963
-4.35229
-4.4071
-4.4604
-4.51199
-4.56168
-4.60929
-4.65468
-4.69766
-4.73805
-4.77567
-4.00928
-4.02235
-4.05224
-4.09408
-4.14227
-4.19355
-4.24632
-4.2996
-4.35259
-4.4047
-4.45552
-4.50474
-4.55214
-4.59755
-4.6408
-4.68177
-4.72031
-4.75636
-4.0378
-4.04909
-4.07496
-4.11182
-4.15523
-4.2023
-4.25137
-4.30132
-4.3513
-4.40065
-4.4489
-4.4957
-4.5408
-4.58401
-4.62519
-4.66425
-4.70109
-4.73568
-4.05639
-4.06644
-4.08955
-4.12289
-4.16274
-4.2065
-4.25252
-4.29965
-4.34699
-4.39387
-4.43979
-4.48438
-4.52738
-4.56861
-4.60795
-4.64532
-4.68066
-4.71399
-4.0577
-4.06722
-4.08921
-4.12113
-4.15946
-4.20166
-4.24607
-4.29157
-4.33727
-4.38252
-4.42681
-4.46981
-4.51126
-4.551
-4.58894
-4.62502
-4.6592
-4.69152
-4.03569
-4.04575
-4.06904
-4.10272
-4.14275
-4.18623
-4.23146
-4.27741
-4.32331
-4.36853
-4.41261
-4.45523
-4.49621
-4.53542
-4.57277
-4.60824
-4.64179
-4.6735
-4.00383
-4.01482
-4.04071
-4.07813
-4.12176
-4.168
-4.21529
-4.26282
-4.30991
-4.35597
-4.4006
-4.44357
-4.48473
-4.524
-4.56134
-4.59675
-4.63023
-4.66186
-3.96406
-3.976
-4.0059
-4.04939
-4.09833
-4.14827
-4.19828
-4.24805
-4.29694
-4.34435
-4.38998
-4.43366
-4.4753
-4.51487
-4.55234
-4.58775
-4.62111
-4.65248
-3.91939
-3.93124
-3.96661
-4.01905
-4.07482
-4.12891
-4.18195
-4.23422
-4.28506
-4.33397
-4.38078
-4.42543
-4.46788
-4.5081
-4.54611
-4.58195
-4.61565
-4.64736
-3.87253
-3.88186
-3.92495
-3.98893
-4.05171
-4.11003
-4.16678
-4.22209
-4.27502
-4.32527
-4.37294
-4.41816
-4.46096
-4.50137
-4.53943
-4.57516
-4.60856
-4.63956
-3.82448
-3.827
-3.88651
-3.96494
-4.031
-4.09084
-4.15082
-4.20969
-4.26566
-4.31845
-4.36833
-4.41542
-4.4598
-4.50151
-4.54062
-4.57719
-4.61124
-4.643
-3.77508
-3.74871
-3.8474
-3.95335
-4.0224
-4.07997
-4.13817
-4.19522
-4.24937
-4.3008
-4.34986
-4.39662
-4.44102
-4.48304
-4.52267
-4.55983
-4.59428
-4.62527
-3.76459
-3.62712
-3.76727
-3.91736
-4.01265
-4.09008
-4.16187
-4.2264
-4.28401
-4.3366
-4.38545
-4.43114
-4.47401
-4.51428
-4.55214
-4.58766
-4.62073
-4.65117
-3.91047
-3.60959
-3.677
-3.76594
-3.84213
-3.92817
-4.01592
-4.09678
-4.16993
-4.23691
-4.29869
-4.35577
-4.40856
-4.45748
-4.50294
-4.54523
-4.58433
-4.61887
-3.94351
-4.16668
-4.2851
-4.23488
-4.19831
-4.20761
-4.23734
-4.27274
-4.3107
-4.35051
-4.39117
-4.43167
-4.47136
-4.5099
-4.54716
-4.58318
-4.61819
-4.65256
-0.518651
-2.64175
-3.47736
-3.7096
-3.83582
-3.95259
-4.05334
-4.13668
-4.20818
-4.27215
-4.33052
-4.38421
-4.43385
-4.48
-4.52318
-4.56398
-4.60336
-4.64435
-5.50573
-5.50611
-5.50734
-5.50892
-5.51052
-5.51221
-5.51436
-5.5172
-5.52072
-5.52492
-5.52985
-5.53553
-5.54198
-5.5492
-5.55718
-5.56592
-5.57538
-5.58555
-5.59639
-5.60788
-5.61997
-5.63263
-5.64583
-5.65954
-5.67373
-5.68839
-5.7035
-5.71906
-5.73507
-5.75151
-5.76837
-5.78561
-5.80321
-5.82113
-5.83938
-5.85795
-5.87684
-5.89606
-5.91558
-5.93542
-5.95555
-5.97596
-5.99665
-6.01758
-6.03874
-6.06011
-6.08165
-6.10333
-6.12511
-6.14696
-6.16882
-6.19065
-6.21238
-6.23395
-6.25531
-6.27637
-6.29706
-6.3173
-6.337
-6.35606
-6.3744
-6.3919
-6.40847
-6.42399
-6.43835
-6.45143
-6.4631
-6.47325
-6.48175
-6.48847
-6.49328
-6.49605
-6.49665
-6.49494
-6.49081
-6.48411
-6.47472
-6.46251
-6.44735
-6.42912
-6.4077
-6.38294
-6.35474
-6.32296
-6.28748
-6.24818
-6.20494
-6.15763
-6.10612
-6.05028
-5.98998
-5.92504
-5.85532
-5.78061
-5.70072
-5.61542
-5.52448
-5.42767
-5.32474
-5.21543
-5.09951
-4.97669
-4.84669
-4.70914
-4.56367
-4.40981
-4.2471
-4.07505
-3.89318
-3.70106
-3.4982
-3.28411
-3.05827
-2.82016
-2.56924
-2.30501
-2.02696
-1.73462
-1.42756
-1.10539
-0.767772
-0.414463
-0.0452914
0.33981
0.740797
1.1575
1.58961
2.03669
2.49814
2.9732
3.46098
3.96043
4.47031
4.98922
5.51563
6.04785
6.58403
7.12213
7.66003
8.19548
8.72615
9.24967
9.76369
10.2659
10.7542
11.2266
11.6813
12.1166
12.5312
12.9243
13.2954
13.6442
13.9695
14.27
14.5453
14.7957
15.0216
15.2239
15.4033
15.5609
15.6979
15.8155
15.915
15.9977
16.0649
16.118
16.1583
16.1869
16.2052
16.2142
16.2152
16.2093
16.1977
16.1818
16.1634
16.1449
16.13
16.1257
16.1488
16.2335
-5.50198
-5.50311
-5.50465
-5.50587
-5.50654
-5.50696
-5.50768
-5.50918
-5.51155
-5.51481
-5.51892
-5.52389
-5.5297
-5.53636
-5.54382
-5.55208
-5.56109
-5.57084
-5.58128
-5.59239
-5.60412
-5.61643
-5.6293
-5.64269
-5.65657
-5.67092
-5.68573
-5.70097
-5.71665
-5.73275
-5.74925
-5.76613
-5.78337
-5.80095
-5.81887
-5.83711
-5.85568
-5.87457
-5.89376
-5.91327
-5.93307
-5.95316
-5.97351
-5.99412
-6.01495
-6.036
-6.05722
-6.07859
-6.10007
-6.12162
-6.1432
-6.16475
-6.18621
-6.20754
-6.22865
-6.24949
-6.26997
-6.29002
-6.30954
-6.32845
-6.34665
-6.36404
-6.38052
-6.39597
-6.41028
-6.42333
-6.435
-6.44518
-6.45372
-6.46051
-6.46541
-6.46829
-6.46903
-6.46748
-6.46353
-6.45703
-6.44787
-6.43591
-6.42102
-6.40308
-6.38197
-6.35756
-6.32972
-6.29834
-6.26328
-6.22444
-6.18168
-6.13489
-6.08394
-6.02869
-5.96902
-5.90478
-5.8358
-5.7619
-5.68289
-5.59855
-5.50866
-5.41298
-5.31127
-5.2033
-5.08882
-4.96758
-4.83927
-4.70356
-4.56005
-4.40829
-4.24777
-4.07802
-3.8986
-3.70908
-3.50901
-3.29789
-3.0752
-2.84043
-2.59306
-2.33256
-2.05845
-1.77024
-1.4675
-1.14984
-0.816925
-0.468485
-0.104339
0.2756
0.671313
1.08266
1.50937
1.95105
2.40712
2.8769
3.35951
3.85394
4.35906
4.87349
5.39571
5.92406
6.45671
6.99169
7.52688
8.06009
8.58903
9.11138
9.6248
10.1271
10.6162
11.0901
11.5469
11.985
12.403
12.7995
13.1737
13.5251
13.8529
14.1563
14.4351
14.6893
14.9195
15.1262
15.3102
15.4726
15.6144
15.7368
15.8411
15.9285
16.0004
16.058
16.1026
16.1354
16.1577
16.1706
16.1753
16.1729
16.1648
16.1523
16.1373
16.1221
16.1109
16.1102
16.1356
16.2035
-5.4927
-5.49555
-5.49924
-5.50134
-5.502
-5.50221
-5.50267
-5.50378
-5.50569
-5.50847
-5.51212
-5.51664
-5.52202
-5.52823
-5.53526
-5.54306
-5.55161
-5.56088
-5.57084
-5.58144
-5.59267
-5.60447
-5.61684
-5.62972
-5.6431
-5.65695
-5.67125
-5.68599
-5.70116
-5.71673
-5.7327
-5.74905
-5.76576
-5.78282
-5.80023
-5.81798
-5.83606
-5.85446
-5.87318
-5.89222
-5.91155
-5.93117
-5.95106
-5.97121
-5.9916
-6.0122
-6.03299
-6.05393
-6.07499
-6.09612
-6.1173
-6.13845
-6.15954
-6.18049
-6.20126
-6.22176
-6.24192
-6.26166
-6.2809
-6.29954
-6.31749
-6.33466
-6.35093
-6.3662
-6.38036
-6.39328
-6.40485
-6.41495
-6.42345
-6.43021
-6.43512
-6.43804
-6.43884
-6.43739
-6.43356
-6.42721
-6.41823
-6.40648
-6.39183
-6.37417
-6.35337
-6.3293
-6.30185
-6.2709
-6.23632
-6.198
-6.15582
-6.10965
-6.05938
-6.00488
-5.94602
-5.88266
-5.81465
-5.74181
-5.66395
-5.58088
-5.49236
-5.39818
-5.2981
-5.19189
-5.07932
-4.96013
-4.83405
-4.70075
-4.55979
-4.41072
-4.25301
-4.08621
-3.90994
-3.72377
-3.52724
-3.31987
-3.10115
-2.87057
-2.6276
-2.37174
-2.10248
-1.81935
-1.52192
-1.20979
-0.882612
-0.540128
-0.18214
0.191454
0.58065
0.985329
1.40524
1.84001
2.28911
2.75188
3.22749
3.71496
4.21314
4.72073
5.23631
5.75822
6.28472
6.81387
7.34359
7.8718
8.39632
8.91491
9.42536
9.92567
10.414
10.8883
11.347
11.788
12.21
12.6115
12.9915
13.3494
13.684
13.9946
14.2808
14.5426
14.7805
14.9949
15.1866
15.3566
15.5058
15.6355
15.7469
15.8411
15.9195
15.9833
16.0339
16.0724
16.1
16.118
16.1274
16.1296
16.1258
16.1175
16.1064
16.0951
16.0875
16.0889
16.1127
16.1536
-5.48094
-5.48545
-5.49195
-5.49615
-5.49829
-5.49963
-5.50087
-5.5024
-5.50447
-5.50724
-5.51077
-5.5151
-5.52024
-5.52618
-5.53288
-5.54034
-5.54852
-5.5574
-5.56694
-5.5771
-5.58787
-5.59922
-5.6111
-5.6235
-5.6364
-5.64976
-5.66358
-5.67783
-5.6925
-5.70758
-5.72305
-5.73891
-5.75514
-5.77173
-5.78868
-5.80597
-5.82361
-5.84159
-5.8599
-5.87852
-5.89746
-5.91669
-5.93621
-5.95599
-5.97602
-5.99628
-6.01673
-6.03734
-6.05809
-6.07892
-6.0998
-6.12068
-6.14149
-6.1622
-6.18272
-6.20299
-6.22294
-6.24248
-6.26153
-6.28001
-6.29781
-6.31484
-6.331
-6.34616
-6.36023
-6.37309
-6.38461
-6.39468
-6.40316
-6.40994
-6.41487
-6.41784
-6.4187
-6.41734
-6.41361
-6.40739
-6.39855
-6.38696
-6.37251
-6.35506
-6.33449
-6.3107
-6.28355
-6.25293
-6.21873
-6.18083
-6.13912
-6.09347
-6.04378
-5.98991
-5.93174
-5.86914
-5.80196
-5.73003
-5.65318
-5.57122
-5.48391
-5.39105
-5.2924
-5.18774
-5.07684
-4.95946
-4.83533
-4.7041
-4.56534
-4.41852
-4.26316
-4.09884
-3.9252
-3.74182
-3.54825
-3.34398
-3.12853
-2.90137
-2.66198
-2.40984
-2.14446
-1.86535
-1.57207
-1.26424
-0.941497
-0.603574
-0.25027
0.118526
0.502817
0.90249
1.3173
1.74689
2.19074
2.64822
3.11851
3.60065
4.0935
4.59579
5.10607
5.62274
6.14406
6.66816
7.19299
7.71658
8.23687
8.75175
9.25917
9.75734
10.2445
10.7188
11.1783
11.6211
12.0457
12.4507
12.8349
13.1974
13.5371
13.8532
14.1453
14.4132
14.6574
14.8782
15.0764
15.2528
15.4085
15.5445
15.6619
15.7621
15.8463
15.9156
15.9715
16.015
16.0474
16.0699
16.0837
16.0899
16.0899
16.0851
16.0772
16.0686
16.0627
16.0631
16.08
16.0944
-5.47021
-5.47601
-5.48501
-5.49148
-5.4954
-5.49816
-5.5005
-5.50285
-5.50548
-5.50861
-5.51236
-5.5168
-5.52195
-5.52783
-5.53442
-5.5417
-5.54966
-5.55828
-5.56752
-5.57736
-5.58778
-5.59874
-5.61024
-5.62223
-5.63471
-5.64766
-5.66105
-5.67487
-5.68911
-5.70377
-5.71882
-5.73426
-5.75008
-5.76627
-5.78284
-5.79976
-5.81704
-5.83467
-5.85264
-5.87095
-5.88958
-5.90852
-5.92775
-5.94727
-5.96705
-5.98706
-6.00728
-6.02768
-6.04822
-6.06886
-6.08956
-6.11027
-6.13093
-6.15149
-6.17188
-6.19203
-6.21187
-6.23131
-6.25028
-6.26869
-6.28642
-6.3034
-6.31951
-6.33465
-6.3487
-6.36154
-6.37306
-6.38314
-6.39164
-6.39844
-6.40341
-6.40642
-6.40734
-6.40603
-6.40238
-6.39625
-6.3875
-6.37603
-6.3617
-6.34439
-6.32399
-6.30037
-6.27344
-6.24306
-6.20914
-6.17156
-6.13022
-6.08499
-6.03576
-5.98242
-5.92485
-5.86292
-5.79648
-5.72538
-5.64946
-5.5685
-5.48232
-5.39069
-5.29337
-5.19016
-5.08084
-4.96517
-4.84286
-4.71355
-4.57676
-4.43195
-4.27868
-4.11661
-3.94536
-3.76451
-3.57358
-3.37209
-3.15952
-2.93535
-2.69904
-2.45007
-2.18793
-1.91213
-1.62222
-1.31779
-0.998496
-0.664045
-0.31423
0.0510727
0.431877
0.828075
1.23944
1.66561
2.10609
2.56023
3.02723
3.50612
3.99578
4.49492
5.00209
5.51568
6.03398
6.55515
7.07722
7.59828
8.11639
8.62952
9.13575
9.63334
10.1205
10.5951
11.0554
11.4995
11.9259
12.3331
12.72
13.0855
13.4285
13.7483
14.0444
14.3166
14.5652
14.7906
14.9935
15.1746
15.3349
15.4755
15.5975
15.7021
15.7905
15.864
15.9238
15.9712
16.0072
16.0331
16.05
16.0592
16.0619
16.0594
16.0535
16.046
16.0398
16.0366
16.0447
16.0368
-5.46289
-5.46962
-5.48033
-5.48868
-5.49426
-5.49843
-5.50194
-5.50521
-5.50856
-5.51222
-5.51636
-5.52105
-5.52635
-5.53228
-5.53885
-5.54606
-5.55389
-5.56233
-5.57135
-5.58094
-5.59107
-5.60173
-5.61289
-5.62454
-5.63667
-5.64925
-5.66227
-5.67573
-5.6896
-5.70389
-5.71858
-5.73367
-5.74915
-5.76501
-5.78126
-5.79788
-5.81487
-5.83222
-5.84993
-5.86799
-5.88639
-5.90511
-5.92415
-5.94348
-5.96308
-5.98293
-6.00301
-6.02327
-6.04369
-6.06423
-6.08483
-6.10546
-6.12605
-6.14654
-6.16688
-6.18699
-6.20679
-6.22621
-6.24516
-6.26355
-6.28128
-6.29826
-6.31437
-6.32952
-6.34358
-6.35644
-6.36797
-6.37806
-6.38658
-6.3934
-6.39839
-6.40142
-6.40237
-6.40109
-6.39746
-6.39135
-6.38264
-6.3712
-6.35691
-6.33966
-6.31932
-6.2958
-6.26897
-6.23874
-6.20499
-6.16763
-6.12654
-6.08162
-6.03277
-5.97987
-5.92281
-5.86146
-5.79569
-5.72535
-5.65028
-5.57029
-5.48517
-5.39471
-5.29869
-5.19691
-5.08914
-4.97515
-4.85463
-4.72717
-4.59224
-4.44933
-4.29808
-4.13821
-3.9693
-3.79092
-3.60259
-3.4038
-3.19402
-2.97272
-2.73935
-2.49338
-2.23427
-1.96153
-1.67469
-1.37333
-1.05709
-0.725665
-0.378834
-0.0164501
0.361527
0.754997
1.16373
1.58736
2.02541
2.47722
2.94202
3.41882
3.90649
4.40374
4.90914
5.4211
5.9379
6.45779
6.97885
7.49925
8.01707
8.53037
9.03718
9.53561
10.0238
10.4996
10.9614
11.4073
11.8357
12.2452
12.6345
13.0025
13.3483
13.671
13.9702
14.2458
14.4978
14.7267
14.9331
15.1178
15.2816
15.4256
15.551
15.6589
15.7505
15.8271
15.8898
15.9399
15.9786
16.0069
16.0261
16.0373
16.0417
16.0406
16.0354
16.0278
16.0199
16.012
16.0114
15.9843
-5.46029
-5.46744
-5.47902
-5.48862
-5.49549
-5.50082
-5.50535
-5.50949
-5.51354
-5.51775
-5.52229
-5.52728
-5.53278
-5.53882
-5.54543
-5.55261
-5.56036
-5.56867
-5.57752
-5.58691
-5.59681
-5.60721
-5.61811
-5.62947
-5.6413
-5.65358
-5.66629
-5.67944
-5.69301
-5.707
-5.7214
-5.7362
-5.75141
-5.76701
-5.78301
-5.79939
-5.81616
-5.83332
-5.85084
-5.86873
-5.88697
-5.90555
-5.92446
-5.94368
-5.96319
-5.98296
-6.00296
-6.02317
-6.04355
-6.06405
-6.08463
-6.10525
-6.12583
-6.14633
-6.16668
-6.18681
-6.20663
-6.22608
-6.24506
-6.26348
-6.28125
-6.29826
-6.31441
-6.32958
-6.34367
-6.35656
-6.36811
-6.37822
-6.38675
-6.39357
-6.39855
-6.40157
-6.40249
-6.40118
-6.39752
-6.39137
-6.38261
-6.37113
-6.3568
-6.33951
-6.31915
-6.29561
-6.26879
-6.23858
-6.2049
-6.16764
-6.1267
-6.08199
-6.03341
-5.98085
-5.9242
-5.86336
-5.79818
-5.72853
-5.65424
-5.57514
-5.49102
-5.40168
-5.30691
-5.20651
-5.10027
-4.98793
-4.86914
-4.74342
-4.61022
-4.46911
-4.31985
-4.16213
-3.99553
-3.81958
-3.63379
-3.43763
-3.23057
-3.01205
-2.78151
-2.53839
-2.28215
-2.01228
-1.72829
-1.42976
-1.1163
-0.787585
-0.443377
-0.0835084
0.292073
0.683283
1.08988
1.51152
1.94771
2.39781
2.86106
3.33647
3.82287
4.31899
4.82348
5.33473
5.85102
6.37073
6.89198
7.41292
7.93166
8.44613
8.95436
9.45441
9.94435
10.4222
10.8861
11.3343
11.7651
12.177
12.5689
12.9395
13.2879
13.6133
13.9153
14.1937
14.4487
14.6805
14.8898
15.0772
15.2438
15.3906
15.5185
15.6289
15.723
15.8018
15.8667
15.9189
15.9594
15.9895
16.0102
16.0226
16.028
16.0275
16.0223
16.0137
16.0032
15.9901
15.9815
15.9375
-5.46222
-5.46941
-5.48119
-5.49144
-5.49916
-5.50534
-5.51066
-5.51549
-5.52013
-5.52482
-5.52974
-5.535
-5.54068
-5.54684
-5.55349
-5.56066
-5.56835
-5.57656
-5.58527
-5.59449
-5.6042
-5.6144
-5.62506
-5.63619
-5.64778
-5.65981
-5.67228
-5.68518
-5.69851
-5.71226
-5.72644
-5.74103
-5.75603
-5.77145
-5.78727
-5.8035
-5.82013
-5.83715
-5.85456
-5.87235
-5.89052
-5.90904
-5.9279
-5.94708
-5.96656
-5.98632
-6.00633
-6.02656
-6.04696
-6.06749
-6.08812
-6.10878
-6.12942
-6.14998
-6.17039
-6.19059
-6.21048
-6.23
-6.24904
-6.26753
-6.28536
-6.30243
-6.31863
-6.33384
-6.34797
-6.36087
-6.37244
-6.38254
-6.39105
-6.39785
-6.40279
-6.40574
-6.40659
-6.40519
-6.40143
-6.39516
-6.38628
-6.37467
-6.3602
-6.34278
-6.32229
-6.29863
-6.27171
-6.24144
-6.20771
-6.17045
-6.12956
-6.08496
-6.03655
-5.98424
-5.92793
-5.8675
-5.80285
-5.73382
-5.66026
-5.58199
-5.49883
-5.41057
-5.31703
-5.21799
-5.11326
-5.00254
-4.88539
-4.76128
-4.62968
-4.49035
-4.34308
-4.18752
-4.02321
-3.84966
-3.66637
-3.47279
-3.26837
-3.05254
-2.82471
-2.5843
-2.33077
-2.06357
-1.78221
-1.48623
-1.17524
-0.848899
-0.506951
-0.149203
0.22442
0.613843
1.01882
1.43898
1.87386
2.32283
2.78514
3.2598
3.7456
4.24132
4.74565
5.25699
5.77364
6.29402
6.8163
7.33847
7.85866
8.37483
8.88499
9.38715
9.87932
10.3595
10.8259
11.2766
11.71
12.1246
12.5191
12.8923
13.2432
13.5712
13.8757
14.1567
14.4141
14.6483
14.86
15.0497
15.2185
15.3673
15.4973
15.6096
15.7054
15.786
15.8524
15.906
15.9478
15.979
16.0006
16.0138
16.0196
16.019
16.0131
16.0028
15.9893
15.9708
15.955
15.8961
-5.46815
-5.47508
-5.48655
-5.49694
-5.5051
-5.5118
-5.51763
-5.52295
-5.52802
-5.53307
-5.53827
-5.54375
-5.54957
-5.55581
-5.56249
-5.56963
-5.57726
-5.58537
-5.59397
-5.60304
-5.61259
-5.62261
-5.63309
-5.64403
-5.65542
-5.66725
-5.67953
-5.69225
-5.70541
-5.71899
-5.73301
-5.74746
-5.76234
-5.77764
-5.79336
-5.80951
-5.82607
-5.84304
-5.86042
-5.87819
-5.89635
-5.91487
-5.93376
-5.95297
-5.97251
-5.99233
-6.0124
-6.0327
-6.05319
-6.07381
-6.09453
-6.1153
-6.13604
-6.15671
-6.17722
-6.19752
-6.21751
-6.23712
-6.25626
-6.27483
-6.29273
-6.30986
-6.32611
-6.34136
-6.3555
-6.36841
-6.37997
-6.39003
-6.39849
-6.40521
-6.41005
-6.41289
-6.41359
-6.41203
-6.40808
-6.40162
-6.39253
-6.38068
-6.36598
-6.34832
-6.32759
-6.30371
-6.27658
-6.24612
-6.21225
-6.17488
-6.13394
-6.08934
-6.04102
-5.98887
-5.93282
-5.87275
-5.80855
-5.74009
-5.66721
-5.58975
-5.50751
-5.42032
-5.32799
-5.23034
-5.12712
-5.01796
-4.90235
-4.77969
-4.64967
-4.51219
-4.36698
-4.21361
-4.05162
-3.88049
-3.6997
-3.5087
-3.3069
-3.09371
-2.86851
-2.6307
-2.37973
-2.11503
-1.83609
-1.54243
-1.23365
-0.909378
-0.569357
-0.21336
0.158718
0.546798
0.950625
1.36982
1.8039
2.25228
2.71425
3.1888
3.67468
4.1707
4.67562
5.18784
5.70562
6.22732
6.75115
7.27513
7.79731
8.31567
8.82817
9.33279
9.82751
10.3104
10.7794
11.2328
11.6689
12.0861
12.4832
12.8589
13.2122
13.5426
13.8494
14.1325
14.392
14.6283
14.8418
15.0334
15.2038
15.3542
15.4857
15.5993
15.6964
15.7781
15.8455
15.9
15.9426
15.9744
15.9964
16.0098
16.0154
16.0142
16.0071
15.9948
15.9779
15.9541
15.9317
15.8596
-5.47735
-5.48382
-5.4946
-5.50472
-5.51293
-5.51983
-5.52592
-5.53151
-5.53683
-5.5421
-5.54748
-5.55307
-5.55897
-5.56524
-5.57191
-5.57901
-5.58657
-5.59458
-5.60306
-5.612
-5.62141
-5.63128
-5.64161
-5.6524
-5.66364
-5.67534
-5.68748
-5.70008
-5.71312
-5.72661
-5.74054
-5.75492
-5.76974
-5.785
-5.8007
-5.81684
-5.83341
-5.8504
-5.86782
-5.88564
-5.90386
-5.92247
-5.94144
-5.96076
-5.9804
-6.00033
-6.02053
-6.04096
-6.06158
-6.08235
-6.10321
-6.12411
-6.14499
-6.16579
-6.18643
-6.20685
-6.22696
-6.24667
-6.2659
-6.28455
-6.30252
-6.3197
-6.33597
-6.35124
-6.36537
-6.37824
-6.38973
-6.39972
-6.40806
-6.41464
-6.41931
-6.42195
-6.42243
-6.42062
-6.41639
-6.40963
-6.40021
-6.38803
-6.37298
-6.35496
-6.33388
-6.30966
-6.2822
-6.25144
-6.2173
-6.17972
-6.13862
-6.09394
-6.0456
-5.99354
-5.93767
-5.87789
-5.81409
-5.74615
-5.67391
-5.59721
-5.51589
-5.42977
-5.3387
-5.24245
-5.14071
-5.033
-4.91872
-4.79746
-4.66914
-4.53363
-4.39055
-4.23945
-4.07983
-3.91117
-3.73292
-3.5445
-3.34531
-3.13473
-2.91209
-2.67681
-2.4283
-2.16598
-1.88931
-1.59781
-1.29102
-0.968598
-0.630249
-0.275732
0.095095
0.482165
0.885203
1.30381
1.73752
2.18577
2.64788
3.12287
3.60948
4.10648
4.61258
5.12627
5.64582
6.16952
6.69553
7.22189
7.7466
8.26761
8.78286
9.29029
9.78785
10.2735
10.7454
11.2016
11.6404
12.0603
12.4598
12.8379
13.1935
13.526
13.8348
14.1198
14.381
14.6189
14.8339
15.0267
15.1984
15.3499
15.4823
15.5968
15.6946
15.777
15.845
15.8999
15.9428
15.9748
15.9968
16.0099
16.0149
16.0127
16.004
15.9892
15.9688
15.9399
15.9116
15.8276
-5.48904
-5.49489
-5.50472
-5.51423
-5.52219
-5.52901
-5.53511
-5.54076
-5.54616
-5.5515
-5.55693
-5.56255
-5.56845
-5.57468
-5.5813
-5.58833
-5.59579
-5.6037
-5.61206
-5.62088
-5.63016
-5.63991
-5.65013
-5.6608
-5.67195
-5.68355
-5.69562
-5.70816
-5.72115
-5.73461
-5.74852
-5.7629
-5.77774
-5.79303
-5.80878
-5.82498
-5.84163
-5.85871
-5.87623
-5.89417
-5.91252
-5.93127
-5.95039
-5.96986
-5.98966
-6.00976
-6.03013
-6.05073
-6.07152
-6.09245
-6.11347
-6.13453
-6.15556
-6.1765
-6.19728
-6.21782
-6.23803
-6.25784
-6.27714
-6.29585
-6.31385
-6.33104
-6.3473
-6.36252
-6.37659
-6.38936
-6.40073
-6.41055
-6.4187
-6.42505
-6.42946
-6.43181
-6.43197
-6.4298
-6.42518
-6.41799
-6.40813
-6.39549
-6.37997
-6.36147
-6.33991
-6.31521
-6.28731
-6.25613
-6.22161
-6.1837
-6.14234
-6.09747
-6.04904
-5.99699
-5.94122
-5.88167
-5.81822
-5.75076
-5.67912
-5.60318
-5.52277
-5.43776
-5.34796
-5.25308
-5.15269
-5.04619
-4.93311
-4.81337
-4.68694
-4.5535
-4.41263
-4.26386
-4.10666
-3.9405
-3.7648
-3.57897
-3.38239
-3.1744
-2.95431
-2.72152
-2.47543
-2.21543
-1.94096
-1.65152
-1.34664
-1.02595
-0.689147
-0.335987
0.0337136
0.419941
0.82242
1.24074
1.67444
2.12295
2.58558
3.06142
3.54925
4.04781
4.55574
5.07151
5.59343
6.11971
6.64848
7.17776
7.7055
8.22963
8.74804
9.25862
9.75931
10.2481
10.7229
11.182
11.6235
12.046
12.448
12.8283
13.1859
13.5202
13.8307
14.1173
14.3799
14.6189
14.8349
15.0287
15.2011
15.3532
15.4862
15.6011
15.6992
15.7818
15.85
15.9049
15.9477
15.9794
16.0011
16.0135
16.0176
16.0141
16.0035
15.986
15.9619
15.928
15.8944
15.8
-5.50243
-5.50757
-5.51626
-5.52493
-5.53237
-5.53887
-5.54477
-5.55028
-5.55559
-5.56086
-5.56621
-5.57176
-5.57758
-5.58372
-5.59023
-5.59715
-5.60449
-5.61228
-5.62053
-5.62924
-5.63842
-5.64808
-5.65821
-5.66882
-5.67991
-5.69148
-5.70353
-5.71606
-5.72907
-5.74255
-5.75652
-5.77096
-5.78588
-5.80128
-5.81714
-5.83347
-5.85026
-5.8675
-5.88518
-5.90329
-5.92182
-5.94075
-5.96006
-5.97973
-5.99972
-6.02002
-6.04057
-6.06136
-6.08233
-6.10343
-6.12462
-6.14583
-6.16701
-6.18807
-6.20896
-6.22959
-6.24987
-6.26973
-6.28906
-6.30776
-6.32573
-6.34287
-6.35905
-6.37415
-6.38806
-6.40065
-6.41179
-6.42136
-6.42921
-6.43522
-6.43926
-6.4412
-6.4409
-6.43825
-6.43311
-6.42537
-6.41494
-6.4017
-6.38556
-6.36645
-6.34429
-6.31899
-6.29052
-6.2588
-6.22379
-6.18544
-6.14372
-6.09858
-6.04998
-5.99784
-5.94212
-5.88273
-5.81957
-5.75254
-5.6815
-5.60631
-5.52685
-5.44296
-5.35439
-5.26073
-5.16138
-5.05586
-4.94412
-4.82618
-4.70178
-4.57052
-4.43195
-4.28557
-4.13085
-3.96724
-3.79414
-3.61096
-3.41704
-3.21172
-2.99426
-2.76401
-2.52037
-2.26272
-1.99047
-1.70308
-1.40009
-1.08108
-0.745754
-0.393851
-0.025191
0.360261
0.76231
1.18057
1.61457
2.06373
2.52732
3.00444
3.49393
3.99449
4.50474
5.02312
5.54791
6.07729
6.60933
7.14202
7.67327
8.20094
8.7229
9.23698
9.74107
10.2331
10.7111
11.1731
11.6174
12.0424
12.4466
12.829
13.1885
13.5244
13.8363
14.124
14.3875
14.6274
14.844
15.0382
15.211
15.3633
15.4964
15.6113
15.7094
15.7918
15.8597
15.9143
15.9567
15.9878
16.0087
16.0202
16.0231
16.0179
16.0051
15.9848
15.9571
15.9185
15.8798
15.7762
-5.51678
-5.52116
-5.52863
-5.53628
-5.54301
-5.54899
-5.55448
-5.55968
-5.56474
-5.56979
-5.57495
-5.58032
-5.58597
-5.59195
-5.59831
-5.60508
-5.61229
-5.61995
-5.62809
-5.6367
-5.6458
-5.65539
-5.66548
-5.67607
-5.68715
-5.69873
-5.71082
-5.7234
-5.73648
-5.75006
-5.76414
-5.77871
-5.79377
-5.80932
-5.82536
-5.84187
-5.85884
-5.87628
-5.89417
-5.91249
-5.93123
-5.95037
-5.96989
-5.98976
-6.00995
-6.03044
-6.05119
-6.07214
-6.09327
-6.11453
-6.13584
-6.15717
-6.17843
-6.19957
-6.2205
-6.24115
-6.26143
-6.28126
-6.30052
-6.31914
-6.33698
-6.35396
-6.36994
-6.38481
-6.39845
-6.41073
-6.42153
-6.4307
-6.43812
-6.44366
-6.44719
-6.44858
-6.44769
-6.44441
-6.43862
-6.43019
-6.41904
-6.40506
-6.38819
-6.36833
-6.34543
-6.31941
-6.29024
-6.25787
-6.22227
-6.1834
-6.14123
-6.09572
-6.04686
-5.99458
-5.93884
-5.87956
-5.81667
-5.75008
-5.67968
-5.6053
-5.52681
-5.444
-5.35648
-5.26364
-5.16507
-5.0608
-4.95083
-4.8349
-4.71267
-4.58371
-4.44754
-4.30366
-4.15153
-3.99057
-3.82018
-3.63972
-3.44854
-3.24595
-3.03123
-2.80364
-2.56254
-2.3073
-2.03731
-1.752
-1.45087
-1.13351
-0.799562
-0.448771
-0.0809588
0.30392
0.705718
1.1241
1.55861
2.00866
2.47351
2.95224
3.44371
3.94663
4.45957
4.98094
5.50901
6.0419
6.57765
7.11418
7.64935
8.18097
8.70684
9.22474
9.73251
10.228
10.7093
11.1743
11.6213
12.0488
12.4552
12.8394
13.2005
13.5377
13.8506
14.1391
14.4032
14.6434
14.8603
15.0545
15.2272
15.3793
15.5121
15.6266
15.7242
15.8061
15.8735
15.9274
15.969
15.9993
16.0192
16.0295
16.0309
16.0238
16.0088
15.9856
15.9541
15.9111
15.8678
15.7561
-5.53146
-5.53509
-5.54131
-5.54784
-5.55371
-5.559
-5.56392
-5.56864
-5.57328
-5.57796
-5.58281
-5.58789
-5.59327
-5.59902
-5.60517
-5.61176
-5.61881
-5.62634
-5.63437
-5.6429
-5.65194
-5.6615
-5.67158
-5.68219
-5.69331
-5.70496
-5.71713
-5.72982
-5.74303
-5.75676
-5.771
-5.78574
-5.80099
-5.81674
-5.83298
-5.8497
-5.86689
-5.88454
-5.90264
-5.92118
-5.94012
-5.95946
-5.97917
-5.99922
-6.01958
-6.04022
-6.06109
-6.08216
-6.10339
-6.12471
-6.14607
-6.16742
-6.18867
-6.20977
-6.23064
-6.25119
-6.27134
-6.291
-6.31007
-6.32845
-6.34603
-6.3627
-6.37834
-6.39283
-6.40605
-6.41787
-6.42816
-6.43679
-6.44363
-6.44855
-6.45142
-6.45211
-6.4505
-6.44646
-6.43988
-6.43063
-6.41863
-6.40379
-6.38605
-6.36532
-6.34156
-6.31471
-6.28474
-6.25162
-6.21532
-6.17583
-6.13313
-6.0872
-6.03802
-5.98554
-5.92975
-5.87057
-5.80794
-5.74182
-5.67208
-5.59857
-5.521
-5.43903
-5.35205
-5.25988
-5.16263
-5.06016
-4.95223
-4.83852
-4.71862
-4.59211
-4.4585
-4.31727
-4.16787
-4.00968
-3.8421
-3.66445
-3.47606
-3.27623
-3.06422
-2.83928
-2.60073
-2.34791
-2.08017
-1.79692
-1.49764
-1.18188
-0.849254
-0.499497
-0.132424
0.252013
0.653698
1.07234
1.5075
1.9586
2.42487
2.90541
3.39907
3.90457
4.42045
4.9451
5.47673
6.01345
6.55322
7.09392
7.63335
8.16924
8.69933
9.22134
9.73302
10.2322
10.7168
11.1849
11.6347
12.0645
12.4729
12.8588
13.2212
13.5593
13.8729
14.1618
14.4261
14.6662
14.8828
15.0767
15.2489
15.4004
15.5325
15.6463
15.7431
15.8242
15.8907
15.9437
15.9843
16.0134
16.0321
16.0409
16.0406
16.0316
16.0141
15.9879
15.953
15.9057
15.8581
15.7395
-5.546
-5.54892
-5.55394
-5.55931
-5.5642
-5.56864
-5.57282
-5.57687
-5.58092
-5.58508
-5.58945
-5.59412
-5.59914
-5.60457
-5.61045
-5.61682
-5.62368
-5.63107
-5.63899
-5.64746
-5.65647
-5.66603
-5.67614
-5.6868
-5.69801
-5.70977
-5.72207
-5.73491
-5.74829
-5.76219
-5.77662
-5.79156
-5.80702
-5.82297
-5.83941
-5.85634
-5.87373
-5.89157
-5.90985
-5.92854
-5.94764
-5.96711
-5.98692
-6.00706
-6.02749
-6.04817
-6.06906
-6.09012
-6.1113
-6.13255
-6.15381
-6.17503
-6.19612
-6.21702
-6.23766
-6.25794
-6.27779
-6.29712
-6.31582
-6.33379
-6.35093
-6.36712
-6.38224
-6.39618
-6.40881
-6.42
-6.42963
-6.43755
-6.44365
-6.44779
-6.44984
-6.44968
-6.44719
-6.44224
-6.43472
-6.42452
-6.41155
-6.39574
-6.37701
-6.3553
-6.33058
-6.30281
-6.27195
-6.238
-6.20095
-6.16078
-6.1175
-6.07111
-6.02158
-5.96891
-5.91309
-5.85407
-5.79178
-5.72617
-5.65707
-5.58422
-5.50711
-5.42542
-5.33926
-5.24859
-5.15319
-5.0528
-4.94711
-4.83576
-4.71835
-4.59443
-4.46351
-4.32505
-4.17848
-4.02317
-3.85847
-3.68371
-3.49816
-3.30111
-3.09181
-2.86951
-2.63348
-2.38303
-2.1175
-1.83626
-1.53877
-1.22455
-0.893198
-0.544421
-0.178029
0.206037
0.607679
1.02664
1.4625
1.91467
2.38243
2.86482
3.36073
3.86887
4.38776
4.91576
5.45107
5.99173
6.53568
7.08072
7.62459
8.16496
8.69946
9.22576
9.74154
10.2445
10.7327
11.2039
11.6563
12.0884
12.4987
12.8859
13.2493
13.5881
13.902
14.1909
14.455
14.6947
14.9106
15.1038
15.275
15.4256
15.5567
15.6694
15.7652
15.8452
15.9105
15.9623
16.0017
16.0296
16.0468
16.0541
16.052
16.0409
16.0209
15.9918
15.9534
15.9023
15.8505
15.726
-5.56054
-5.56279
-5.56665
-5.57082
-5.5746
-5.578
-5.58121
-5.58437
-5.58761
-5.59104
-5.59476
-5.59885
-5.60338
-5.6084
-5.61393
-5.62002
-5.62667
-5.63389
-5.64171
-5.65011
-5.6591
-5.66868
-5.67884
-5.68959
-5.7009
-5.71279
-5.72523
-5.73823
-5.75178
-5.76586
-5.78046
-5.79557
-5.81119
-5.8273
-5.84389
-5.86094
-5.87845
-5.89638
-5.91472
-5.93346
-5.95256
-5.97202
-5.99179
-6.01184
-6.03216
-6.05269
-6.0734
-6.09424
-6.11516
-6.13612
-6.15706
-6.17791
-6.19861
-6.21909
-6.23926
-6.25906
-6.27838
-6.29715
-6.31525
-6.3326
-6.34908
-6.36457
-6.37898
-6.39216
-6.40401
-6.41438
-6.42315
-6.4302
-6.43538
-6.43858
-6.43965
-6.43849
-6.43496
-6.42895
-6.42036
-6.40908
-6.39502
-6.37812
-6.35832
-6.33557
-6.30981
-6.28104
-6.24926
-6.21444
-6.1766
-6.13573
-6.09188
-6.04504
-5.99521
-5.9424
-5.88663
-5.82784
-5.76591
-5.70064
-5.6317
-5.55885
-5.48221
-5.40173
-5.31719
-5.2284
-5.13507
-5.03691
-4.93357
-4.82471
-4.70989
-4.58866
-4.46052
-4.3249
-4.18121
-4.02881
-3.86702
-3.69514
-3.51244
-3.31816
-3.11154
-2.89182
-2.65825
-2.4101
-2.1467
-1.86741
-1.57165
-1.25892
-0.928801
-0.580983
-0.215265
0.168424