/*--------------------------------*- C++ -*----------------------------------*\
| =========                 |                                                 |
| \\      /  F ield         | OpenFOAM: The Open Source CFD Toolbox           |
|  \\    /   O peration     | Version:  plus                                  |
|   \\  /    A nd           | Website:  www.openfoam.com                      |
|    \\/     M anipulation  |                                                 |
\*---------------------------------------------------------------------------*/
FoamFile
{
    version     2.0;
    format      ascii;
    class       surfaceScalarField;
    location    "150";
    object      phi;
}
// * * * * * * * * * * * * * * * * * * * * * * * * * * * * * * * * * * * * * //

dimensions      [0 3 -1 0 0 0 0];
oriented        oriented;


internalField   nonuniform List<scalar> 
24170
(
3.13271e-06
5.56957e-08
3.05823e-06
7.44832e-08
2.99843e-06
5.98021e-08
2.9388e-06
5.96232e-08
2.88132e-06
5.74836e-08
2.82753e-06
5.37881e-08
2.77764e-06
4.98927e-08
2.73143e-06
4.6206e-08
2.68864e-06
4.27867e-08
2.64902e-06
3.96297e-08
2.6123e-06
3.67197e-08
2.57826e-06
3.40372e-08
2.5467e-06
3.15622e-08
2.51742e-06
2.92809e-08
2.49021e-06
2.72086e-08
2.46467e-06
2.55376e-08
2.43849e-06
2.61783e-08
2.78655e-08
2.41063e-06
3.44251e-06
3.0436e-08
3.43088e-06
8.61142e-08
3.41491e-06
7.57675e-08
3.39921e-06
7.53284e-08
3.38236e-06
7.43305e-08
3.36477e-06
7.13829e-08
3.34677e-06
6.78914e-08
3.32857e-06
6.43997e-08
3.31036e-06
6.09968e-08
3.2923e-06
5.76953e-08
3.27451e-06
5.45049e-08
3.25712e-06
5.14317e-08
3.2402e-06
4.84788e-08
3.22383e-06
4.56551e-08
3.20803e-06
4.30077e-08
3.19282e-06
4.07407e-08
3.17975e-06
3.92524e-08
3.5552e-08
3.17206e-06
3.66036e-06
3.2593e-08
3.66971e-06
7.67617e-08
3.67131e-06
7.41663e-08
3.67296e-06
7.36857e-08
3.67363e-06
7.36535e-08
3.6731e-06
7.19118e-08
3.67165e-06
6.93488e-08
3.66948e-06
6.65643e-08
3.66677e-06
6.37119e-08
3.66363e-06
6.08321e-08
3.66018e-06
5.79543e-08
3.65651e-06
5.51013e-08
3.6527e-06
5.22886e-08
3.64882e-06
4.95314e-08
3.64497e-06
4.68601e-08
3.64139e-06
4.43258e-08
3.6389e-06
4.17416e-08
3.72122e-08
3.63724e-06
3.92529e-06
3.26909e-08
3.93482e-06
6.7235e-08
3.93902e-06
6.9965e-08
3.94251e-06
7.01967e-08
3.94548e-06
7.0682e-08
3.94773e-06
6.96627e-08
3.94944e-06
6.76397e-08
3.95077e-06
6.52304e-08
3.95182e-06
6.2659e-08
3.95266e-06
5.99972e-08
3.95333e-06
5.72872e-08
3.95387e-06
5.45592e-08
3.95433e-06
5.1831e-08
3.95475e-06
4.91118e-08
3.9552e-06
4.64015e-08
3.95587e-06
4.36553e-08
3.95703e-06
4.05896e-08
3.61709e-08
3.95807e-06
4.20938e-06
3.04357e-08
4.21718e-06
5.94338e-08
4.22181e-06
6.53353e-08
4.22553e-06
6.64783e-08
4.22898e-06
6.72381e-08
4.23201e-06
6.66276e-08
4.23469e-06
6.4957e-08
4.23712e-06
6.28026e-08
4.23936e-06
6.04248e-08
4.24144e-06
5.79163e-08
4.2434e-06
5.53268e-08
4.24527e-06
5.26896e-08
4.24708e-06
5.0022e-08
4.24886e-06
4.73258e-08
4.25068e-06
4.45807e-08
4.25263e-06
4.17092e-08
4.25474e-06
3.84782e-08
3.44122e-08
4.2565e-06
4.51198e-06
2.75413e-08
4.51872e-06
5.26992e-08
4.52367e-06
6.03851e-08
4.52772e-06
6.24259e-08
4.53151e-06
6.34452e-08
4.53499e-06
6.31528e-08
4.53815e-06
6.17909e-08
4.54108e-06
5.98735e-08
4.54383e-06
5.76754e-08
4.54644e-06
5.53073e-08
4.54894e-06
5.28276e-08
4.55136e-06
5.02729e-08
4.55372e-06
4.76609e-08
4.55605e-06
4.499e-08
4.5584e-06
4.22328e-08
4.5608e-06
3.93144e-08
4.5632e-06
3.60762e-08
3.23154e-08
4.56529e-06
4.83558e-06
2.46791e-08
4.84168e-06
4.66041e-08
4.84684e-06
5.5221e-08
4.8512e-06
5.80692e-08
4.85527e-06
5.93776e-08
4.85904e-06
5.9375e-08
4.86253e-06
5.83028e-08
4.86579e-06
5.66167e-08
4.86887e-06
5.45954e-08
4.87181e-06
5.23658e-08
4.87464e-06
4.99953e-08
4.87739e-06
4.7525e-08
4.88008e-06
4.49746e-08
4.88272e-06
4.23433e-08
4.88535e-06
3.96066e-08
4.88796e-06
3.67078e-08
4.89048e-06
3.35544e-08
3.00902e-08
4.8927e-06
5.1823e-06
2.19611e-08
5.18785e-06
4.10571e-08
5.19305e-06
5.00176e-08
5.19761e-06
5.35059e-08
5.2019e-06
5.50918e-08
5.20593e-06
5.5346e-08
5.20969e-06
5.454e-08
5.21323e-06
5.30774e-08
5.21659e-06
5.1233e-08
5.21981e-06
4.91456e-08
5.22292e-06
4.68909e-08
5.22593e-06
4.45148e-08
5.22886e-06
4.20404e-08
5.23173e-06
3.94711e-08
5.23455e-06
3.67912e-08
5.23729e-06
3.39663e-08
5.23989e-06
3.09534e-08
2.77663e-08
5.24221e-06
5.5539e-06
1.93945e-08
5.55893e-06
3.60295e-08
5.56404e-06
4.49059e-08
5.56872e-06
4.88255e-08
5.57318e-06
5.06392e-08
5.57742e-06
5.11057e-08
5.58142e-06
5.05339e-08
5.58522e-06
4.92819e-08
5.58884e-06
4.76126e-08
5.59231e-06
4.56717e-08
5.59566e-06
4.35417e-08
5.5989e-06
4.12727e-08
5.60205e-06
3.88924e-08
5.60511e-06
3.64106e-08
5.60808e-06
3.38227e-08
5.61093e-06
3.11151e-08
5.61361e-06
2.8278e-08
2.53567e-08
5.61602e-06
5.95218e-06
1.69899e-08
5.95674e-06
3.1469e-08
5.96169e-06
3.9957e-08
5.96642e-06
4.4097e-08
5.97099e-06
4.60706e-08
5.97539e-06
4.66991e-08
5.9796e-06
4.6323e-08
5.98362e-06
4.52616e-08
5.98748e-06
4.37605e-08
5.99118e-06
4.19674e-08
5.99475e-06
3.99692e-08
5.99821e-06
3.78199e-08
6.00155e-06
3.55522e-08
6.00477e-06
3.31828e-08
6.00788e-06
3.07182e-08
6.01083e-06
2.81611e-08
6.01359e-06
2.55226e-08
2.28586e-08
6.01609e-06
6.37905e-06
1.47531e-08
6.3832e-06
2.73147e-08
6.38796e-06
3.52032e-08
6.39268e-06
3.93698e-08
6.39733e-06
4.14278e-08
6.40186e-06
4.21673e-08
6.40624e-06
4.19455e-08
6.41045e-06
4.10497e-08
6.4145e-06
3.97055e-08
6.41841e-06
3.80582e-08
6.42218e-06
3.61968e-08
6.42583e-06
3.41785e-08
6.42934e-06
3.20403e-08
6.43271e-06
2.98056e-08
6.43594e-06
2.74901e-08
6.439e-06
2.51082e-08
6.44184e-06
2.26823e-08
2.02666e-08
6.44443e-06
5.7426e-06
1.29834e-08
5.74584e-06
2.40823e-08
5.7497e-06
3.13439e-08
5.75367e-06
3.53986e-08
5.75763e-06
3.7469e-08
5.76153e-06
3.82647e-08
5.76533e-06
3.81412e-08
5.76902e-06
3.73648e-08
5.77258e-06
3.61432e-08
5.77602e-06
3.46163e-08
5.77935e-06
3.28734e-08
5.78255e-06
3.09733e-08
5.78563e-06
2.89561e-08
5.78859e-06
2.68498e-08
5.7914e-06
2.4676e-08
5.79406e-06
2.24559e-08
5.79652e-06
2.02164e-08
1.80139e-08
5.79878e-06
7.00004e-06
1.10959e-08
7.0035e-06
2.06276e-08
7.00773e-06
2.71073e-08
7.01222e-06
3.09113e-08
7.01677e-06
3.29176e-08
7.02131e-06
3.37296e-08
7.02577e-06
3.36837e-08
7.03011e-06
3.30206e-08
7.03433e-06
3.1927e-08
7.03841e-06
3.05342e-08
7.04235e-06
2.89295e-08
7.04615e-06
2.71725e-08
7.0498e-06
2.53055e-08
7.05329e-06
2.33603e-08
7.05661e-06
2.1363e-08
7.05972e-06
1.93391e-08
7.06262e-06
1.73178e-08
1.53498e-08
7.06529e-06
8.53283e-06
9.10791e-09
8.53648e-06
1.69791e-08
8.54108e-06
2.2512e-08
8.54609e-06
2.59021e-08
8.55126e-06
2.77418e-08
8.55648e-06
2.85111e-08
8.56166e-06
2.85083e-08
8.56673e-06
2.79436e-08
8.57168e-06
2.69793e-08
8.57648e-06
2.57336e-08
8.58112e-06
2.42888e-08
8.58559e-06
2.27032e-08
8.58988e-06
2.10198e-08
8.59397e-06
1.92722e-08
8.59784e-06
1.74891e-08
8.60148e-06
1.56973e-08
8.60488e-06
1.39249e-08
1.22144e-08
8.60801e-06
1.04013e-05
7.03477e-09
1.04051e-05
1.31573e-08
1.04101e-05
1.7573e-08
1.04156e-05
2.03678e-08
1.04214e-05
2.19133e-08
1.04274e-05
2.25598e-08
1.04333e-05
2.25507e-08
1.04392e-05
2.20596e-08
1.0445e-05
2.122e-08
1.04506e-05
2.01324e-08
1.0456e-05
1.88701e-08
1.04612e-05
1.74868e-08
1.04662e-05
1.60234e-08
1.0471e-05
1.45127e-08
1.04755e-05
1.29828e-08
1.04797e-05
1.1459e-08
1.04837e-05
9.96597e-09
8.53747e-09
1.04873e-05
1.26789e-05
4.87982e-09
1.26829e-05
9.15521e-09
1.26882e-05
1.22835e-08
1.26943e-05
1.42929e-08
1.27008e-05
1.53953e-08
1.27076e-05
1.5819e-08
1.27144e-05
1.57396e-08
1.27212e-05
1.52868e-08
1.27278e-05
1.45608e-08
1.27343e-05
1.36395e-08
1.27406e-05
1.25817e-08
1.27466e-05
1.14323e-08
1.27524e-05
1.02264e-08
1.2758e-05
8.99244e-09
1.27632e-05
7.75469e-09
1.27681e-05
6.53432e-09
1.27727e-05
5.35099e-09
4.23026e-09
1.2777e-05
1.54554e-05
2.61772e-09
1.54597e-05
4.91634e-09
1.54654e-05
6.58012e-09
1.54721e-05
7.6105e-09
1.54794e-05
8.10884e-09
1.5487e-05
8.19583e-09
1.54947e-05
7.97202e-09
1.55025e-05
7.51535e-09
1.55102e-05
6.8877e-09
1.55177e-05
6.13849e-09
1.5525e-05
5.30664e-09
1.5532e-05
4.42286e-09
1.55387e-05
3.51188e-09
1.55451e-05
2.59423e-09
1.55512e-05
1.68728e-09
1.55569e-05
8.05988e-10
1.55623e-05
-3.61033e-11
-8.20735e-10
1.55673e-05
1.88401e-05
1.68091e-10
1.88447e-05
2.87147e-10
1.8851e-05
2.7457e-10
1.88585e-05
1.24081e-10
1.88668e-05
-1.44187e-10
1.88755e-05
-5.07721e-10
1.88844e-05
-9.47447e-10
1.88933e-05
-1.44558e-09
1.89022e-05
-1.98525e-09
1.89109e-05
-2.55145e-09
1.89193e-05
-3.13133e-09
1.89275e-05
-3.71369e-09
1.89353e-05
-4.28864e-09
1.89427e-05
-4.84739e-09
1.89498e-05
-5.38208e-09
1.89565e-05
-5.88585e-09
1.89628e-05
-6.35217e-09
-6.76925e-09
1.89688e-05
2.29662e-05
-2.66037e-09
2.29715e-05
-5.09356e-09
2.29789e-05
-7.09297e-09
2.29877e-05
-8.65567e-09
2.29974e-05
-9.84089e-09
2.30076e-05
-1.07422e-08
2.30181e-05
-1.14401e-08
2.30287e-05
-1.19878e-08
2.30391e-05
-1.24216e-08
2.30493e-05
-1.27683e-08
2.30592e-05
-1.30477e-08
2.30688e-05
-1.32734e-08
2.3078e-05
-1.34543e-08
2.30867e-05
-1.35961e-08
2.3095e-05
-1.37025e-08
2.31029e-05
-1.37757e-08
2.31104e-05
-1.38166e-08
-1.38198e-08
2.31174e-05
1.68129e-05
-4.85315e-09
1.68171e-05
-9.25837e-09
1.68227e-05
-1.27756e-08
1.68294e-05
-1.53555e-08
1.68368e-05
-1.7148e-08
1.68444e-05
-1.83776e-08
1.68522e-05
-1.92103e-08
1.68599e-05
-1.97484e-08
1.68676e-05
-2.00656e-08
1.6875e-05
-2.02201e-08
1.68822e-05
-2.02553e-08
1.68891e-05
-2.02021e-08
1.68958e-05
-2.0082e-08
1.69021e-05
-1.99108e-08
1.69081e-05
-1.96997e-08
1.69138e-05
-1.94569e-08
1.69191e-05
-1.91876e-08
-1.88909e-08
1.69242e-05
1.46367e-05
-6.94865e-09
1.46407e-05
-1.3292e-08
1.46462e-05
-1.82574e-08
1.46525e-05
-2.16846e-08
1.46593e-05
-2.39062e-08
1.46662e-05
-2.53382e-08
1.46732e-05
-2.62206e-08
1.46802e-05
-2.66891e-08
1.4687e-05
-2.68523e-08
1.46935e-05
-2.67979e-08
1.46999e-05
-2.65887e-08
1.47059e-05
-2.62683e-08
1.47117e-05
-2.58682e-08
1.47172e-05
-2.54114e-08
1.47224e-05
-2.49155e-08
1.47274e-05
-2.43934e-08
1.4732e-05
-2.38545e-08
-2.33018e-08
1.47365e-05
1.27421e-05
-8.95468e-09
1.27462e-05
-1.73649e-08
1.27517e-05
-2.37681e-08
1.27578e-05
-2.78075e-08
1.27642e-05
-3.02515e-08
1.27706e-05
-3.17698e-08
1.2777e-05
-3.26236e-08
1.27833e-05
-3.29629e-08
1.27894e-05
-3.29334e-08
1.27952e-05
-3.26506e-08
1.28008e-05
-3.21914e-08
1.28062e-05
-3.16083e-08
1.28112e-05
-3.09394e-08
1.2816e-05
-3.02135e-08
1.28206e-05
-2.94519e-08
1.28249e-05
-2.86711e-08
1.28289e-05
-2.7883e-08
-2.70933e-08
1.28327e-05
1.10927e-05
-1.07561e-08
1.1097e-05
-2.16189e-08
1.11027e-05
-2.94742e-08
1.11087e-05
-3.37736e-08
1.11146e-05
-3.62216e-08
1.11206e-05
-3.77241e-08
1.11264e-05
-3.84702e-08
1.11321e-05
-3.86234e-08
1.11375e-05
-3.83725e-08
1.11427e-05
-3.7852e-08
1.11477e-05
-3.71449e-08
1.11524e-05
-3.63084e-08
1.11568e-05
-3.53849e-08
1.1161e-05
-3.44067e-08
1.1165e-05
-3.33986e-08
1.11687e-05
-3.23811e-08
1.11722e-05
-3.13724e-08
-3.03892e-08
1.11755e-05
9.65661e-06
-1.21538e-08
9.66121e-06
-2.62191e-08
9.66713e-06
-3.53871e-08
9.67284e-06
-3.94898e-08
9.67843e-06
-4.18064e-08
9.68392e-06
-4.32196e-08
9.68922e-06
-4.37663e-08
9.69426e-06
-4.36688e-08
9.69906e-06
-4.31667e-08
9.70361e-06
-4.24007e-08
9.70791e-06
-4.14513e-08
9.71198e-06
-4.03754e-08
9.71581e-06
-3.92163e-08
9.71941e-06
-3.80061e-08
9.72278e-06
-3.67694e-08
9.72593e-06
-3.55263e-08
9.72885e-06
-3.42941e-08
-3.30853e-08
9.73154e-06
8.40601e-06
-1.28157e-08
8.41139e-06
-3.15943e-08
8.41725e-06
-4.1249e-08
8.42239e-06
-4.46306e-08
8.42746e-06
-4.68744e-08
8.43245e-06
-4.82079e-08
8.4372e-06
-4.8513e-08
8.44167e-06
-4.81398e-08
8.44588e-06
-4.73764e-08
8.44984e-06
-4.6361e-08
8.45356e-06
-4.5171e-08
8.45704e-06
-4.38633e-08
8.46031e-06
-4.24807e-08
8.46336e-06
-4.10536e-08
8.46619e-06
-3.9605e-08
8.46882e-06
-3.81558e-08
8.47126e-06
-3.67352e-08
-3.5406e-08
8.47358e-06
7.31569e-06
-1.12213e-08
7.32301e-06
-3.8913e-08
7.32871e-06
-4.69502e-08
7.33313e-06
-4.9047e-08
7.33754e-06
-5.12832e-08
7.34181e-06
-5.24856e-08
7.34583e-06
-5.25262e-08
7.34959e-06
-5.19054e-08
7.35313e-06
-5.09172e-08
7.35645e-06
-4.9683e-08
7.35956e-06
-4.82774e-08
7.36246e-06
-4.67597e-08
7.36515e-06
-4.51731e-08
7.36764e-06
-4.35462e-08
7.36993e-06
-4.18963e-08
7.37201e-06
-4.02327e-08
7.37384e-06
-3.85612e-08
-3.68783e-08
7.37531e-06
6.36252e-06
-3.67079e-09
6.37315e-06
-4.95447e-08
6.37907e-06
-5.28706e-08
6.38366e-06
-5.36345e-08
6.38802e-06
-5.56482e-08
6.3918e-06
-5.62613e-08
6.39502e-06
-5.57487e-08
6.39785e-06
-5.47343e-08
6.40037e-06
-5.34443e-08
6.40264e-06
-5.19531e-08
6.40469e-06
-5.03193e-08
6.40652e-06
-4.85947e-08
6.40817e-06
-4.68176e-08
6.40963e-06
-4.50122e-08
6.41092e-06
-4.31893e-08
6.41204e-06
-4.13477e-08
6.41297e-06
-3.9488e-08
-3.76985e-08
6.41379e-06
5.53242e-06
9.37792e-09
5.54347e-06
-6.06e-08
5.54689e-06
-5.62854e-08
5.5508e-06
-5.75491e-08
5.55461e-06
-5.94606e-08
5.55749e-06
-5.91402e-08
5.55949e-06
-5.77462e-08
5.56078e-06
-5.60231e-08
5.56148e-06
-5.41458e-08
5.56169e-06
-5.21605e-08
5.56148e-06
-5.01113e-08
5.56092e-06
-4.80376e-08
5.56007e-06
-4.59672e-08
5.55898e-06
-4.39158e-08
5.55767e-06
-4.18849e-08
5.55617e-06
-3.9851e-08
5.55442e-06
-3.77325e-08
-3.52716e-08
5.55199e-06
4.84979e-06
-1.28044e-08
4.84476e-06
-5.55674e-08
4.83368e-06
-4.52117e-08
4.82445e-06
-4.83154e-08
4.81507e-06
-5.00841e-08
4.80523e-06
-4.92968e-08
4.79495e-06
-4.7469e-08
4.78424e-06
-4.53135e-08
4.77314e-06
-4.30397e-08
4.76171e-06
-4.07347e-08
4.75006e-06
-3.84573e-08
4.73827e-06
-3.62463e-08
4.72642e-06
-3.41236e-08
4.7146e-06
-3.20985e-08
4.70289e-06
-3.01686e-08
4.69135e-06
-2.83124e-08
4.68006e-06
-2.64446e-08
-2.4205e-08
4.669e-06
4.18987e-06
4.1343e-06
4.08909e-06
4.04078e-06
3.99069e-06
3.9414e-06
3.89393e-06
3.84861e-06
3.80557e-06
3.76484e-06
3.72638e-06
3.69014e-06
3.65601e-06
3.62391e-06
3.59375e-06
3.56543e-06
3.53899e-06
3.51478e-06
1.88558e-08
-1.88558e-08
3.32428e-08
-1.43872e-08
3.83975e-08
-5.155e-09
3.39354e-08
4.46196e-09
2.08951e-08
1.30401e-08
1.01262e-09
1.98823e-08
-2.39563e-08
2.49687e-08
-5.22333e-08
2.82768e-08
-8.26576e-08
3.04242e-08
-1.14553e-07
3.18948e-08
-1.47508e-07
3.29553e-08
-1.81254e-07
3.37462e-08
-2.15595e-07
3.43409e-08
-2.50375e-07
3.478e-08
-2.85465e-07
3.50895e-08
-3.20754e-07
3.52889e-08
-3.56149e-07
3.53951e-08
-3.91573e-07
3.54234e-08
-4.26961e-07
3.5388e-08
-4.62263e-07
3.53017e-08
-4.97439e-07
3.51766e-08
-5.32462e-07
3.5023e-08
-5.67313e-07
3.48502e-08
-6.01979e-07
3.46661e-08
-6.36456e-07
3.4477e-08
-6.70744e-07
3.4288e-08
-7.04847e-07
3.41028e-08
-7.38772e-07
3.39247e-08
-7.72528e-07
3.37565e-08
-8.06129e-07
3.36009e-08
-8.39591e-07
3.34613e-08
-8.72933e-07
3.33423e-08
-9.06184e-07
3.32512e-08
-9.39383e-07
3.31988e-08
-9.72569e-07
3.3186e-08
-1.00577e-06
3.32026e-08
-1.03901e-06
3.32429e-08
-1.07232e-06
3.33027e-08
-1.1057e-06
3.33789e-08
-1.13917e-06
3.34686e-08
-1.17273e-06
3.3569e-08
-1.20641e-06
3.36777e-08
-1.2402e-06
3.37924e-08
-1.27412e-06
3.39107e-08
-1.30815e-06
3.40303e-08
-1.34229e-06
3.41491e-08
-1.37656e-06
3.42649e-08
-1.41094e-06
3.43755e-08
-1.44541e-06
3.44791e-08
-1.47999e-06
3.45737e-08
-1.51465e-06
3.46574e-08
-1.54937e-06
3.47285e-08
-1.58416e-06
3.47853e-08
-1.61899e-06
3.48263e-08
-1.65384e-06
3.48499e-08
-1.68869e-06
3.48548e-08
-1.72353e-06
3.48399e-08
-1.75833e-06
3.48038e-08
-1.79308e-06
3.47457e-08
-1.82775e-06
3.46646e-08
-1.86231e-06
3.45597e-08
-1.89674e-06
3.44305e-08
-1.93101e-06
3.42764e-08
-1.96511e-06
3.40969e-08
-1.999e-06
3.3892e-08
-2.03266e-06
3.36613e-08
-2.06607e-06
3.3405e-08
-2.09919e-06
3.3123e-08
-2.13201e-06
3.28158e-08
-2.16449e-06
3.24835e-08
-2.19662e-06
3.21268e-08
-2.22836e-06
3.17459e-08
-2.2597e-06
3.13416e-08
-2.29062e-06
3.09145e-08
-2.32108e-06
3.04652e-08
-2.35108e-06
2.99946e-08
-2.38058e-06
2.95035e-08
-2.40958e-06
2.89925e-08
-2.43804e-06
2.84624e-08
-2.46595e-06
2.79141e-08
-2.4933e-06
2.7348e-08
-2.52007e-06
2.67647e-08
-2.54623e-06
2.61647e-08
-2.57178e-06
2.55478e-08
-2.59669e-06
2.49139e-08
-2.62095e-06
2.42623e-08
-2.64455e-06
2.35922e-08
-2.66745e-06
2.29021e-08
-2.68964e-06
2.21904e-08
-2.71109e-06
2.14553e-08
-2.73179e-06
2.06948e-08
-2.7517e-06
1.99068e-08
-2.77079e-06
1.90894e-08
-2.78903e-06
1.82407e-08
-2.80638e-06
1.73585e-08
-2.82283e-06
1.64403e-08
-2.83831e-06
1.54826e-08
-2.85279e-06
1.44808e-08
-2.86622e-06
1.34292e-08
-2.87854e-06
1.23213e-08
-2.88969e-06
1.11506e-08
-2.8996e-06
9.91124e-09
-2.9082e-06
8.59952e-09
-2.91542e-06
7.21344e-09
-2.92117e-06
5.75207e-09
-2.92538e-06
4.2123e-09
-2.92797e-06
2.58557e-09
-2.92882e-06
8.54232e-10
-2.92785e-06
-9.74747e-10
-2.92496e-06
-2.88664e-09
-2.92007e-06
-4.89462e-09
-2.91305e-06
-7.01306e-09
-2.9038e-06
-9.25047e-09
-2.89219e-06
-1.16134e-08
-2.87808e-06
-1.41071e-08
-2.86135e-06
-1.67353e-08
-2.84185e-06
-1.95005e-08
-2.81944e-06
-2.24041e-08
-2.794e-06
-2.54458e-08
-2.76537e-06
-2.86243e-08
-2.73344e-06
-3.19365e-08
-2.69806e-06
-3.53782e-08
-2.65912e-06
-3.89436e-08
-2.61649e-06
-4.26254e-08
-2.57008e-06
-4.64146e-08
-2.51978e-06
-5.03001e-08
-2.46551e-06
-5.42688e-08
-2.4072e-06
-5.83058e-08
-2.34481e-06
-6.23957e-08
-2.27828e-06
-6.65216e-08
-2.20762e-06
-7.06637e-08
-2.13282e-06
-7.48002e-08
-2.05391e-06
-7.89087e-08
-1.97094e-06
-8.29671e-08
-1.88399e-06
-8.69524e-08
-1.79315e-06
-9.08412e-08
-1.69854e-06
-9.46148e-08
-1.60028e-06
-9.82568e-08
-1.49853e-06
-1.0175e-07
-1.39345e-06
-1.05079e-07
-1.28523e-06
-1.08223e-07
-1.17406e-06
-1.11164e-07
-1.06018e-06
-1.13881e-07
-9.43796e-07
-1.16385e-07
-8.25158e-07
-1.18639e-07
-7.04582e-07
-1.20575e-07
-5.82103e-07
-1.22479e-07
-4.58405e-07
-1.23698e-07
-3.33491e-07
-1.24914e-07
-2.06032e-07
-1.27459e-07
-7.60892e-08
-1.29942e-07
5.51919e-08
-1.31281e-07
1.85998e-07
-1.30807e-07
3.14906e-07
-1.28908e-07
4.41221e-07
-1.26315e-07
5.64447e-07
-1.23226e-07
6.84177e-07
-1.1973e-07
8.00067e-07
-1.1589e-07
9.11824e-07
-1.11757e-07
1.0192e-06
-1.0738e-07
1.12201e-06
-1.02808e-07
1.2201e-06
-9.80898e-08
1.31337e-06
-9.32718e-08
1.40177e-06
-8.83966e-08
1.48527e-06
-8.35026e-08
1.56389e-06
-7.86225e-08
1.63768e-06
-7.37819e-08
1.70668e-06
-6.89988e-08
1.77096e-06
-6.42812e-08
1.83058e-06
-5.96256e-08
1.88559e-06
-5.50116e-08
1.93599e-06
-5.03952e-08
1.98168e-06
-4.56929e-08
2.02243e-06
-4.07523e-08
2.05772e-06
-3.5287e-08
2.08644e-06
-2.87224e-08
2.10628e-06
-1.9838e-08
2.11198e-06
-5.69826e-09
2.08916e-06
2.28153e-08
9.83775e-08
1.99079e-06
4.40326e-09
-2.32592e-08
-1.3658e-09
-8.61856e-09
-1.32927e-08
6.77152e-09
-2.91121e-08
2.02811e-08
-4.78007e-08
3.17285e-08
-6.905e-08
4.11313e-08
-9.25895e-08
4.8508e-08
-1.18343e-07
5.40305e-08
-1.46022e-07
5.81028e-08
-1.75235e-07
6.11072e-08
-2.05619e-07
6.33392e-08
-2.36877e-07
6.50041e-08
-2.68776e-07
6.62398e-08
-3.01135e-07
6.71393e-08
-3.33814e-07
6.77685e-08
-3.66703e-07
6.81771e-08
-3.99712e-07
6.84048e-08
-4.32774e-07
6.84851e-08
-4.65834e-07
6.84472e-08
-4.98848e-07
6.83164e-08
-5.31787e-07
6.81154e-08
-5.64628e-07
6.78638e-08
-5.97357e-07
6.75787e-08
-6.29966e-07
6.72749e-08
-6.62454e-07
6.69647e-08
-6.94824e-07
6.66583e-08
-7.27085e-07
6.63642e-08
-7.5925e-07
6.60895e-08
-7.91334e-07
6.58405e-08
-8.23356e-07
6.56225e-08
-8.55336e-07
6.5441e-08
-8.87295e-07
6.53006e-08
-9.19249e-07
6.5206e-08
-9.5121e-07
6.51596e-08
-9.83184e-07
6.51597e-08
-1.01518e-06
6.52016e-08
-1.04722e-06
6.52802e-08
-1.07931e-06
6.53906e-08
-1.11146e-06
6.55283e-08
-1.14368e-06
6.56886e-08
-1.17598e-06
6.58671e-08
-1.20836e-06
6.60593e-08
-1.24083e-06
6.6261e-08
-1.27338e-06
6.64679e-08
-1.30603e-06
6.66757e-08
-1.33876e-06
6.68804e-08
-1.37157e-06
6.70779e-08
-1.40446e-06
6.72642e-08
-1.43742e-06
6.74356e-08
-1.47043e-06
6.75885e-08
-1.5035e-06
6.77192e-08
-1.53659e-06
6.78245e-08
-1.56971e-06
6.79011e-08
-1.60283e-06
6.79461e-08
-1.63593e-06
6.79568e-08
-1.66901e-06
6.79305e-08
-1.70204e-06
6.78648e-08
-1.73499e-06
6.77577e-08
-1.76785e-06
6.76071e-08
-1.8006e-06
6.74115e-08
-1.83321e-06
6.71693e-08
-1.86566e-06
6.68794e-08
-1.89792e-06
6.65408e-08
-1.92998e-06
6.61527e-08
-1.9618e-06
6.57148e-08
-1.99337e-06
6.52267e-08
-2.02465e-06
6.46885e-08
-2.05563e-06
6.41004e-08
-2.08627e-06
6.34629e-08
-2.11657e-06
6.27767e-08
-2.14648e-06
6.20427e-08
-2.176e-06
6.12619e-08
-2.20509e-06
6.04354e-08
-2.23374e-06
5.95647e-08
-2.26193e-06
5.86511e-08
-2.28963e-06
5.76962e-08
-2.31683e-06
5.67015e-08
-2.34351e-06
5.56683e-08
-2.36964e-06
5.45984e-08
-2.39522e-06
5.34927e-08
-2.42023e-06
5.23526e-08
-2.44464e-06
5.11788e-08
-2.46845e-06
4.99717e-08
-2.49163e-06
4.87312e-08
-2.51417e-06
4.74569e-08
-2.53606e-06
4.61473e-08
-2.55727e-06
4.48007e-08
-2.57778e-06
4.34144e-08
-2.59757e-06
4.19853e-08
-2.61663e-06
4.05096e-08
-2.63492e-06
3.89832e-08
-2.65241e-06
3.74014e-08
-2.66908e-06
3.57597e-08
-2.6849e-06
3.4053e-08
-2.69981e-06
3.22759e-08
-2.7138e-06
3.04222e-08
-2.7268e-06
2.84846e-08
-2.73877e-06
2.64545e-08
-2.74966e-06
2.43218e-08
-2.75942e-06
2.20751e-08
-2.76797e-06
1.97029e-08
-2.77526e-06
1.71947e-08
-2.7812e-06
1.45417e-08
-2.78572e-06
1.17372e-08
-2.78875e-06
8.77524e-09
-2.79018e-06
5.64645e-09
-2.78993e-06
2.33324e-09
-2.78791e-06
-1.1687e-09
-2.78404e-06
-4.84377e-09
-2.77823e-06
-8.69777e-09
-2.77036e-06
-1.27573e-08
-2.76033e-06
-1.70433e-08
-2.74801e-06
-2.15715e-08
-2.73327e-06
-2.63546e-08
-2.71598e-06
-3.14026e-08
-2.69599e-06
-3.67231e-08
-2.67317e-06
-4.23212e-08
-2.64737e-06
-4.81993e-08
-2.61846e-06
-5.43575e-08
-2.58629e-06
-6.0793e-08
-2.55073e-06
-6.75004e-08
-2.51164e-06
-7.44715e-08
-2.46889e-06
-8.16949e-08
-2.42235e-06
-8.91565e-08
-2.37193e-06
-9.68384e-08
-2.31751e-06
-1.04719e-07
-2.25901e-06
-1.12771e-07
-2.19635e-06
-1.20968e-07
-2.12947e-06
-1.29276e-07
-2.05833e-06
-1.37664e-07
-1.9829e-06
-1.46093e-07
-1.90317e-06
-1.54522e-07
-1.81918e-06
-1.62906e-07
-1.73094e-06
-1.71201e-07
-1.63853e-06
-1.79363e-07
-1.54203e-06
-1.87345e-07
-1.44154e-06
-1.95104e-07
-1.33719e-06
-2.02603e-07
-1.22914e-06
-2.09801e-07
-1.11756e-06
-2.16659e-07
-1.00265e-06
-2.23131e-07
-8.84637e-07
-2.29178e-07
-7.63772e-07
-2.34745e-07
-6.403e-07
-2.39856e-07
-5.14476e-07
-2.44462e-07
-3.86604e-07
-2.48447e-07
-2.56937e-07
-2.52146e-07
-1.25096e-07
-2.55539e-07
7.98593e-09
-2.57996e-07
1.40291e-07
-2.59764e-07
2.70677e-07
-2.60328e-07
3.98249e-07
-2.58853e-07
5.23144e-07
-2.55702e-07
6.45526e-07
-2.51289e-07
7.65102e-07
-2.45891e-07
8.81532e-07
-2.39656e-07
9.94491e-07
-2.32689e-07
1.10368e-06
-2.25084e-07
1.20886e-06
-2.1693e-07
1.3098e-06
-2.0832e-07
1.40634e-06
-1.99345e-07
1.49834e-06
-1.90095e-07
1.58573e-06
-1.80657e-07
1.66844e-06
-1.71113e-07
1.74647e-06
-1.61533e-07
1.81983e-06
-1.51981e-07
1.88855e-06
-1.42504e-07
1.95269e-06
-1.33137e-07
2.01231e-06
-1.23897e-07
2.06746e-06
-1.14776e-07
2.11818e-06
-1.05738e-07
2.16449e-06
-9.66998e-08
2.2063e-06
-8.75067e-08
2.24343e-06
-7.78782e-08
2.27544e-06
-6.72981e-08
2.30149e-06
-5.47687e-08
2.31991e-06
-3.82599e-08
2.32746e-06
-1.32541e-08
2.31879e-06
3.14923e-08
1.21128e-07
2.29604e-06
-1.14037e-08
-1.18556e-08
-2.90318e-08
9.0093e-09
-4.81409e-08
2.58805e-08
-6.7963e-08
4.01031e-08
-8.85109e-08
5.22764e-08
-1.09957e-07
6.25774e-08
-1.32527e-07
7.10782e-08
-1.56401e-07
7.79041e-08
-1.81573e-07
8.3275e-08
-2.0791e-07
8.74438e-08
-2.35219e-07
9.06483e-08
-2.63303e-07
9.30883e-08
-2.91985e-07
9.49219e-08
-3.21117e-07
9.6271e-08
-3.50578e-07
9.72297e-08
-3.80274e-07
9.78723e-08
-4.10128e-07
9.82587e-08
-4.40081e-07
9.84387e-08
-4.70089e-07
9.84544e-08
-5.00114e-07
9.83422e-08
-5.30133e-07
9.81336e-08
-5.60125e-07
9.78558e-08
-5.90078e-07
9.75322e-08
-6.19987e-07
9.71832e-08
-6.49848e-07
9.68259e-08
-6.79664e-07
9.64745e-08
-7.09441e-07
9.61411e-08
-7.39187e-07
9.58356e-08
-7.68913e-07
9.55663e-08
-7.98631e-07
9.53399e-08
-8.28352e-07
9.51619e-08
-8.58087e-07
9.50363e-08
-8.87847e-07
9.49654e-08
-9.17637e-07
9.49496e-08
-9.47464e-07
9.49869e-08
-9.77336e-07
9.50734e-08
-1.00726e-06
9.52047e-08
-1.03725e-06
9.53755e-08
-1.0673e-06
9.55804e-08
-1.09742e-06
9.58138e-08
-1.12763e-06
9.60698e-08
-1.15791e-06
9.63428e-08
-1.18827e-06
9.66266e-08
-1.21872e-06
9.69155e-08
-1.24925e-06
9.72035e-08
-1.27986e-06
9.7485e-08
-1.31053e-06
9.77541e-08
-1.34127e-06
9.80053e-08
-1.37207e-06
9.82332e-08
-1.40291e-06
9.84326e-08
-1.43379e-06
9.85985e-08
-1.4647e-06
9.8726e-08
-1.49561e-06
9.88107e-08
-1.52651e-06
9.88483e-08
-1.55739e-06
9.88347e-08
-1.58822e-06
9.87662e-08
-1.619e-06
9.86396e-08
-1.64969e-06
9.84516e-08
-1.68028e-06
9.81996e-08
-1.71075e-06
9.78811e-08
-1.74108e-06
9.7494e-08
-1.77123e-06
9.70366e-08
-1.8012e-06
9.65076e-08
-1.83095e-06
9.59059e-08
-1.86047e-06
9.52309e-08
-1.88973e-06
9.44822e-08
-1.9187e-06
9.36598e-08
-1.94736e-06
9.27642e-08
-1.97569e-06
9.17961e-08
-2.00367e-06
9.07564e-08
-2.03128e-06
8.96466e-08
-2.05848e-06
8.84682e-08
-2.08527e-06
8.7223e-08
-2.11162e-06
8.5913e-08
-2.13751e-06
8.45404e-08
-2.16292e-06
8.31074e-08
-2.18784e-06
8.16164e-08
-2.21224e-06
8.00696e-08
-2.23611e-06
7.84692e-08
-2.25943e-06
7.68169e-08
-2.28219e-06
7.51144e-08
-2.30438e-06
7.33627e-08
-2.32597e-06
7.15625e-08
-2.34695e-06
6.97135e-08
-2.36731e-06
6.78149e-08
-2.38703e-06
6.58648e-08
-2.40609e-06
6.38605e-08
-2.42447e-06
6.17982e-08
-2.44216e-06
5.96731e-08
-2.45913e-06
5.74798e-08
-2.47536e-06
5.52116e-08
-2.49082e-06
5.28614e-08
-2.50548e-06
5.04214e-08
-2.51931e-06
4.78829e-08
-2.53227e-06
4.52369e-08
-2.54432e-06
4.24732e-08
-2.55542e-06
3.95806e-08
-2.56551e-06
3.65464e-08
-2.57455e-06
3.33564e-08
-2.58247e-06
2.99954e-08
-2.58921e-06
2.64477e-08
-2.59471e-06
2.2698e-08
-2.59891e-06
1.87327e-08
-2.60171e-06
1.45393e-08
-2.60304e-06
1.01053e-08
-2.60281e-06
5.41572e-09
-2.60093e-06
4.50701e-10
-2.59732e-06
-4.77544e-09
-2.59191e-06
-1.02525e-08
-2.5846e-06
-1.60125e-08
-2.57527e-06
-2.20877e-08
-2.5638e-06
-2.85062e-08
-2.55008e-06
-3.52913e-08
-2.53398e-06
-4.24621e-08
-2.51534e-06
-5.00338e-08
-2.49405e-06
-5.80179e-08
-2.46995e-06
-6.64221e-08
-2.4429e-06
-7.52506e-08
-2.41275e-06
-8.45037e-08
-2.37937e-06
-9.41777e-08
-2.3426e-06
-1.04265e-07
-2.30232e-06
-1.14754e-07
-2.25839e-06
-1.25627e-07
-2.21068e-06
-1.36864e-07
-2.15908e-06
-1.48439e-07
-2.10348e-06
-1.60318e-07
-2.04379e-06
-1.72461e-07
-1.97993e-06
-1.84827e-07
-1.91184e-06
-1.97366e-07
-1.83948e-06
-2.10032e-07
-1.7628e-06
-2.22767e-07
-1.68182e-06
-2.35507e-07
-1.59654e-06
-2.48186e-07
-1.507e-06
-2.60736e-07
-1.41327e-06
-2.73092e-07
-1.31544e-06
-2.85177e-07
-1.21362e-06
-2.96921e-07
-1.10796e-06
-3.08264e-07
-9.98633e-07
-3.19131e-07
-8.85833e-07
-3.29459e-07
-7.69795e-07
-3.39169e-07
-6.50764e-07
-3.48209e-07
-5.29027e-07
-3.56482e-07
-4.04859e-07
-3.64024e-07
-2.78558e-07
-3.70763e-07
-1.50285e-07
-3.7672e-07
-2.07527e-08
-3.81679e-07
1.08851e-07
-3.85143e-07
2.37807e-07
-3.86952e-07
3.65323e-07
-3.8728e-07
4.90815e-07
-3.8582e-07
6.14067e-07
-3.82105e-07
7.34856e-07
-3.76491e-07
8.5291e-07
-3.69343e-07
9.67906e-07
-3.60887e-07
1.07952e-06
-3.51275e-07
1.18748e-06
-3.40642e-07
1.29151e-06
-3.29114e-07
1.3914e-06
-3.16822e-07
1.48698e-06
-3.03897e-07
1.57811e-06
-2.90473e-07
1.66469e-06
-2.7668e-07
1.74668e-06
-2.62643e-07
1.82404e-06
-2.48475e-07
1.89679e-06
-2.34281e-07
1.96495e-06
-2.20148e-07
2.02859e-06
-2.06145e-07
2.08778e-06
-1.92321e-07
2.14258e-06
-1.787e-07
2.19308e-06
-1.6527e-07
2.23932e-06
-1.5198e-07
2.28133e-06
-1.38714e-07
2.31908e-06
-1.25257e-07
2.35243e-06
-1.11227e-07
2.38107e-06
-9.594e-08
2.40444e-06
-7.81323e-08
2.42157e-06
-5.53918e-08
2.43117e-06
-2.2854e-08
2.43327e-06
2.9392e-08
1.18245e-07
2.43615e-06
-2.06422e-08
8.78643e-09
-4.35204e-08
3.18873e-08
-6.60641e-08
4.84241e-08
-8.82018e-08
6.22407e-08
-1.10119e-07
7.41938e-08
-1.32074e-07
8.45321e-08
-1.54338e-07
9.33421e-08
-1.77134e-07
1.007e-07
-2.00584e-07
1.06725e-07
-2.24714e-07
1.11574e-07
-2.49482e-07
1.15416e-07
-2.74808e-07
1.18414e-07
-3.006e-07
1.20714e-07
-3.26769e-07
1.2244e-07
-3.53235e-07
1.23696e-07
-3.7993e-07
1.24567e-07
-4.06799e-07
1.25127e-07
-4.33794e-07
1.25435e-07
-4.60882e-07
1.25542e-07
-4.88034e-07
1.25494e-07
-5.15228e-07
1.25328e-07
-5.4245e-07
1.25077e-07
-5.69688e-07
1.2477e-07
-5.96936e-07
1.24431e-07
-6.24191e-07
1.24081e-07
-6.51454e-07
1.23737e-07
-6.78726e-07
1.23414e-07
-7.06014e-07
1.23123e-07
-7.33322e-07
1.22874e-07
-7.60657e-07
1.22675e-07
-7.88027e-07
1.22532e-07
-8.15438e-07
1.22447e-07
-8.42895e-07
1.22423e-07
-8.70405e-07
1.22459e-07
-8.97971e-07
1.22553e-07
-9.256e-07
1.22702e-07
-9.53296e-07
1.22901e-07
-9.81065e-07
1.23144e-07
-1.00891e-06
1.23426e-07
-1.03684e-06
1.23739e-07
-1.06484e-06
1.24078e-07
-1.09293e-06
1.24434e-07
-1.12111e-06
1.24801e-07
-1.14937e-06
1.25172e-07
-1.1777e-06
1.25538e-07
-1.20611e-06
1.25894e-07
-1.23459e-06
1.26231e-07
-1.26312e-06
1.26542e-07
-1.29171e-06
1.26822e-07
-1.32034e-06
1.27062e-07
-1.349e-06
1.27258e-07
-1.37768e-06
1.27401e-07
-1.40635e-06
1.27488e-07
-1.43502e-06
1.27512e-07
-1.46365e-06
1.27468e-07
-1.49224e-06
1.27352e-07
-1.52075e-06
1.27158e-07
-1.54919e-06
1.26884e-07
-1.57751e-06
1.26526e-07
-1.60571e-06
1.2608e-07
-1.63376e-06
1.25543e-07
-1.66164e-06
1.24915e-07
-1.68932e-06
1.24192e-07
-1.71679e-06
1.23374e-07
-1.74402e-06
1.2246e-07
-1.77099e-06
1.21449e-07
-1.79767e-06
1.20341e-07
-1.82404e-06
1.19138e-07
-1.85008e-06
1.17839e-07
-1.87577e-06
1.16447e-07
-1.90109e-06
1.14962e-07
-1.92601e-06
1.13388e-07
-1.95051e-06
1.11727e-07
-1.97458e-06
1.09982e-07
-1.9982e-06
1.08154e-07
-2.02134e-06
1.06248e-07
-2.04399e-06
1.04267e-07
-2.06613e-06
1.02214e-07
-2.08776e-06
1.00091e-07
-2.10884e-06
9.79012e-08
-2.12937e-06
9.56468e-08
-2.14934e-06
9.33291e-08
-2.16873e-06
9.0949e-08
-2.18752e-06
8.85063e-08
-2.2057e-06
8.59998e-08
-2.22327e-06
8.34273e-08
-2.24019e-06
8.07851e-08
-2.25646e-06
7.80683e-08
-2.27206e-06
7.52707e-08
-2.28696e-06
7.23847e-08
-2.30115e-06
6.94015e-08
-2.3146e-06
6.63111e-08
-2.32728e-06
6.31024e-08
-2.33916e-06
5.97634e-08
-2.35021e-06
5.62809e-08
-2.36038e-06
5.26407e-08
-2.36962e-06
4.88275e-08
-2.3779e-06
4.48246e-08
-2.38516e-06
4.06139e-08
-2.39134e-06
3.6176e-08
-2.39638e-06
3.14913e-08
-2.40023e-06
2.65401e-08
-2.4028e-06
2.13036e-08
-2.40402e-06
1.57637e-08
-2.40382e-06
9.90202e-09
-2.4021e-06
3.69605e-09
-2.3988e-06
-2.85331e-09
-2.39384e-06
-9.7307e-09
-2.38714e-06
-1.69528e-08
-2.37859e-06
-2.45586e-08
-2.36809e-06
-3.25882e-08