/*--------------------------------*- C++ -*----------------------------------*\
| =========                 |                                                 |
| \\      /  F ield         | OpenFOAM: The Open Source CFD Toolbox           |
|  \\    /   O peration     | Version:  plus                                  |
|   \\  /    A nd           | Website:  www.openfoam.com                      |
|    \\/     M anipulation  |                                                 |
\*---------------------------------------------------------------------------*/
FoamFile
{
    version     2.0;
    format      ascii;
    class       volVectorField;
    location    "150";
    object      U;
}
// * * * * * * * * * * * * * * * * * * * * * * * * * * * * * * * * * * * * * //

dimensions      [0 1 -1 0 0 0 0];


internalField   nonuniform List<vector> 
12225
(
(9.80107 -1.3116 0)
(9.70377 -0.821235 0)
(9.51737 -0.551092 0)
(9.31538 -0.379974 0)
(9.12598 -0.266636 0)
(8.95101 -0.189578 0)
(8.78867 -0.135893 0)
(8.63805 -0.0977412 0)
(8.49852 -0.0702144 0)
(8.36934 -0.0501134 0)
(8.2497 -0.0352903 0)
(8.13882 -0.0242719 0)
(8.03602 -0.0160306 0)
(7.94068 -0.00983535 0)
(7.85217 -0.00514221 0)
(7.76965 -0.00142699 0)
(7.6888 0.00288157 0)
(7.62963 -0.0284476 0)
(10.0702 0.412458 0)
(10.0578 0.418449 0)
(10.0222 0.347401 0)
(9.97324 0.28503 0)
(9.92317 0.234645 0)
(9.87268 0.194324 0)
(9.82079 0.162669 0)
(9.76777 0.13802 0)
(9.71436 0.118774 0)
(9.66116 0.103635 0)
(9.60861 0.0916178 0)
(9.55706 0.081982 0)
(9.50679 0.0741706 0)
(9.45802 0.0677716 0)
(9.41092 0.0625154 0)
(9.36569 0.0584171 0)
(9.32364 0.0567681 0)
(9.28863 0.0669042 0)
(9.99418 0.0581413 0)
(10.006 0.0263445 0)
(10.0218 -0.00244914 0)
(10.0279 -0.00716884 0)
(10.0301 -0.00255475 0)
(10.0301 0.00416176 0)
(10.0275 0.0111078 0)
(10.0225 0.0176142 0)
(10.0157 0.0233354 0)
(10.0077 0.0281531 0)
(9.99862 0.032089 0)
(9.98885 0.0352256 0)
(9.97859 0.0376626 0)
(9.96806 0.0395064 0)
(9.95746 0.0408898 0)
(9.94719 0.0420489 0)
(9.93852 0.0431819 0)
(9.93107 0.0412523 0)
(9.99769 0.0153004 0)
(10.0096 0.0338661 0)
(10.0291 0.0428406 0)
(10.0405 0.0523289 0)
(10.048 0.0595299 0)
(10.0543 0.0634238 0)
(10.0593 0.0650853 0)
(10.0632 0.0654802 0)
(10.0662 0.0651286 0)
(10.0685 0.0643183 0)
(10.0704 0.0632297 0)
(10.0719 0.0619756 0)
(10.0732 0.060621 0)
(10.0743 0.0592027 0)
(10.0753 0.0577462 0)
(10.0767 0.0562496 0)
(10.0789 0.0543854 0)
(10.0815 0.0501174 0)
(10.0012 0.0168521 0)
(10.0127 0.0407001 0)
(10.0295 0.0479698 0)
(10.0402 0.0510101 0)
(10.0482 0.0529034 0)
(10.0556 0.0535607 0)
(10.0624 0.0535081 0)
(10.0685 0.0532248 0)
(10.074 0.0528806 0)
(10.0791 0.0525004 0)
(10.0839 0.0520755 0)
(10.0884 0.0515904 0)
(10.0928 0.0510237 0)
(10.0971 0.0503489 0)
(10.1013 0.0495256 0)
(10.1057 0.0484499 0)
(10.1106 0.0467564 0)
(10.1153 0.0434149 0)
(10.002 0.0181931 0)
(10.0124 0.0376834 0)
(10.0268 0.0437907 0)
(10.0374 0.0462756 0)
(10.0458 0.0484665 0)
(10.0536 0.0499723 0)
(10.061 0.0508288 0)
(10.0678 0.0513094 0)
(10.074 0.0515463 0)
(10.08 0.051575 0)
(10.0856 0.0514098 0)
(10.0911 0.0510597 0)
(10.0963 0.0505241 0)
(10.1015 0.0497875 0)
(10.1067 0.0488065 0)
(10.112 0.0474684 0)
(10.1173 0.0454983 0)
(10.1225 0.0424236 0)
(10.002 0.0166599 0)
(10.011 0.0327844 0)
(10.0237 0.0395145 0)
(10.0341 0.0428487 0)
(10.0426 0.0455283 0)
(10.0506 0.0473785 0)
(10.0581 0.0484356 0)
(10.0651 0.0489825 0)
(10.0716 0.049198 0)
(10.0779 0.0491571 0)
(10.0838 0.0488964 0)
(10.0896 0.0484358 0)
(10.0952 0.0477777 0)
(10.1007 0.0469037 0)
(10.1061 0.0457648 0)
(10.1116 0.0442579 0)
(10.1169 0.0421944 0)
(10.122 0.0393683 0)
(10.0018 0.0147305 0)
(10.0095 0.0286955 0)
(10.0207 0.0359024 0)
(10.0306 0.0397549 0)
(10.0391 0.0425505 0)
(10.047 0.0444498 0)
(10.0545 0.0455545 0)
(10.0616 0.0461278 0)
(10.0682 0.0463503 0)
(10.0746 0.046304 0)
(10.0807 0.0460279 0)
(10.0866 0.0455402 0)
(10.0923 0.0448413 0)
(10.0979 0.0439108 0)
(10.1034 0.0427032 0)
(10.1088 0.0411378 0)
(10.1139 0.0390995 0)
(10.1189 0.0365242 0)
(10.0016 0.0130173 0)
(10.0082 0.0252341 0)
(10.0179 0.03242 0)
(10.0272 0.0364835 0)
(10.0354 0.0392974 0)
(10.0432 0.0412207 0)
(10.0506 0.0423854 0)
(10.0576 0.0430124 0)
(10.0643 0.0432668 0)
(10.0707 0.0432322 0)
(10.0768 0.0429497 0)
(10.0828 0.0424389 0)
(10.0885 0.041702 0)
(10.0941 0.040723 0)
(10.0995 0.0394669 0)
(10.1048 0.0378799 0)
(10.1098 0.035901 0)
(10.1146 0.0335364 0)
(10.0015 0.0114552 0)
(10.007 0.022112 0)
(10.0154 0.0289828 0)
(10.024 0.0331058 0)
(10.0319 0.035916 0)
(10.0394 0.037847 0)
(10.0466 0.0390508 0)
(10.0535 0.0397136 0)
(10.0601 0.0399855 0)
(10.0665 0.0399514 0)
(10.0726 0.0396555 0)
(10.0785 0.0391204 0)
(10.0842 0.0383518 0)
(10.0897 0.0373407 0)
(10.095 0.0360649 0)
(10.1001 0.0344943 0)
(10.105 0.0326048 0)
(10.1096 0.0304351 0)
(10.0013 0.0100012 0)
(10.006 0.0192658 0)
(10.0133 0.0256648 0)
(10.0211 0.0297222 0)
(10.0285 0.0324805 0)
(10.0357 0.0343757 0)
(10.0427 0.0355764 0)
(10.0494 0.0362441 0)
(10.0559 0.0365138 0)
(10.0622 0.036469 0)
(10.0682 0.036156 0)
(10.074 0.0355996 0)
(10.0796 0.03481 0)
(10.085 0.0337852 0)
(10.0902 0.0325156 0)
(10.0951 0.0309896 0)
(10.0998 0.0292064 0)
(10.1042 0.027216 0)
(10.0011 0.0087394 0)
(10.0053 0.0168553 0)
(10.0117 0.0227384 0)
(10.0187 0.0266351 0)
(10.0258 0.0292951 0)
(10.0326 0.031119 0)
(10.0393 0.0322823 0)
(10.0459 0.0329294 0)
(10.0522 0.0331813 0)
(10.0583 0.0331178 0)
(10.0642 0.0327859 0)
(10.0699 0.0322126 0)
(10.0753 0.0314116 0)
(10.0806 0.0303879 0)
(10.0856 0.0291415 0)
(10.0904 0.0276735 0)
(10.0949 0.0259961 0)
(10.0992 0.0241631 0)
(10.001 0.00756822 0)
(10.0046 0.014632 0)
(10.0102 0.0199408 0)
(10.0167 0.0235916 0)
(10.0233 0.0261081 0)
(10.0298 0.0278311 0)
(10.0362 0.0289315 0)
(10.0425 0.0295391 0)
(10.0487 0.0297613 0)
(10.0546 0.0296729 0)
(10.0603 0.0293206 0)
(10.0659 0.0287331 0)
(10.0712 0.0279279 0)
(10.0763 0.0269154 0)
(10.0812 0.0257035 0)
(10.0858 0.0243024 0)
(10.0901 0.0227321 0)
(10.0942 0.0210486 0)
(10.0009 0.00634422 0)
(10.004 0.0122921 0)
(10.0089 0.0169029 0)
(10.0147 0.0201837 0)
(10.0208 0.0224722 0)
(10.0269 0.0240356 0)
(10.033 0.0250287 0)
(10.0391 0.0255645 0)
(10.0449 0.0257356 0)
(10.0507 0.0256091 0)
(10.0562 0.0252302 0)
(10.0616 0.0246287 0)
(10.0667 0.0238253 0)
(10.0716 0.0228354 0)
(10.0763 0.0216732 0)
(10.0807 0.0203552 0)
(10.0848 0.0189054 0)
(10.0888 0.0173749 0)
(10.0007 0.00506628 0)
(10.0034 0.00983532 0)
(10.0077 0.0136282 0)
(10.0128 0.0164047 0)
(10.0184 0.0183613 0)
(10.0241 0.0196897 0)
(10.0299 0.0205179 0)
(10.0356 0.0209397 0)
(10.0412 0.0210308 0)
(10.0467 0.020849 0)
(10.052 0.0204359 0)
(10.0571 0.0198208 0)
(10.062 0.0190265 0)
(10.0667 0.0180716 0)
(10.0712 0.0169741 0)
(10.0754 0.0157537 0)
(10.0793 0.0144347 0)
(10.0831 0.0130607 0)
(10.0006 0.00373582 0)
(10.0029 0.00726442 0)
(10.0066 0.0101212 0)
(10.0112 0.0122515 0)
(10.0162 0.0137556 0)
(10.0215 0.0147564 0)
(10.0269 0.0153479 0)
(10.0323 0.0156017 0)
(10.0376 0.0155757 0)
(10.0428 0.0153158 0)
(10.0478 0.0148573 0)
(10.0527 0.0142273 0)
(10.0574 0.0134478 0)
(10.0619 0.0125382 0)
(10.0661 0.0115174 0)
(10.0701 0.0104049 0)
(10.0739 0.00922254 0)
(10.0775 0.00800568 0)
(10.0006 0.00234604 0)
(10.0025 0.00456185 0)
(10.0057 0.00636282 0)
(10.0098 0.00770152 0)
(10.0144 0.00862067 0)
(10.0193 0.00918683 0)
(10.0243 0.0094577 0)
(10.0294 0.0094796 0)
(10.0344 0.00929108 0)
(10.0393 0.00892417 0)
(10.0441 0.00840493 0)
(10.0487 0.00775479 0)
(10.0532 0.00699225 0)
(10.0574 0.00613428 0)
(10.0614 0.00519729 0)
(10.0653 0.00419782 0)
(10.0689 0.0031536 0)
(10.0724 0.00209184 0)
(10.0005 0.000864925 0)
(10.0022 0.00166341 0)
(10.0051 0.00227388 0)
(10.0089 0.00266972 0)
(10.0131 0.00286263 0)
(10.0177 0.00287579 0)
(10.0224 0.00273119 0)
(10.0271 0.0024481 0)
(10.0319 0.00204389 0)
(10.0366 0.00153407 0)
(10.0411 0.000932288 0)
(10.0455 0.000250806 0)
(10.0498 -0.000498889 0)
(10.0538 -0.00130561 0)
(10.0577 -0.0021582 0)
(10.0613 -0.00304538 0)
(10.0648 -0.003955 0)
(10.0681 -0.00486674 0)
(10.0005 -0.000785192 0)
(10.0021 -0.00157758 0)
(10.0049 -0.00233018 0)
(10.0085 -0.00303873 0)
(10.0126 -0.003711 0)
(10.017 -0.00436396 0)
(10.0215 -0.00501345 0)
(10.0261 -0.00566975 0)
(10.0307 -0.00633907 0)
(10.0352 -0.00702534 0)
(10.0396 -0.00773068 0)
(10.0438 -0.00845545 0)
(10.0479 -0.00919849 0)
(10.0518 -0.00995742 0)
(10.0555 -0.0107289 0)
(10.0591 -0.0115088 0)
(10.0624 -0.0122919 0)
(10.0657 -0.0130645 0)
(10.0005 -0.00235902 0)
(10.0023 -0.0046774 0)
(10.0052 -0.00673523 0)
(10.0089 -0.00848286 0)
(10.0132 -0.00995101 0)
(10.0177 -0.0112066 0)
(10.0223 -0.0123063 0)
(10.0269 -0.0132888 0)
(10.0315 -0.0141833 0)
(10.036 -0.0150136 0)
(10.0404 -0.0157979 0)
(10.0446 -0.0165489 0)
(10.0486 -0.0172755 0)
(10.0525 -0.0179836 0)
(10.0562 -0.0186768 0)
(10.0596 -0.0193569 0)
(10.0629 -0.0200239 0)
(10.0661 -0.0206701 0)
(10.0005 -0.00371249 0)
(10.0025 -0.00736576 0)
(10.0057 -0.0105372 0)
(10.0099 -0.0131054 0)
(10.0144 -0.0151597 0)
(10.0192 -0.0168457 0)
(10.024 -0.0182597 0)
(10.0288 -0.0194603 0)
(10.0335 -0.0204952 0)
(10.038 -0.0214055 0)
(10.0425 -0.0222229 0)
(10.0467 -0.0229706 0)
(10.0508 -0.0236654 0)
(10.0546 -0.0243199 0)
(10.0583 -0.0249435 0)
(10.0617 -0.025543 0)
(10.065 -0.0261227 0)
(10.0682 -0.0266803 0)
(10.0006 -0.0050084 0)
(10.0028 -0.0100248 0)
(10.0066 -0.0142818 0)
(10.0113 -0.0175353 0)
(10.0163 -0.0200236 0)
(10.0213 -0.0220184 0)
(10.0264 -0.0236514 0)
(10.0314 -0.0249953 0)
(10.0363 -0.0261152 0)
(10.0409 -0.0270661 0)
(10.0455 -0.0278878 0)
(10.0497 -0.0286093 0)
(10.0538 -0.0292526 0)
(10.0577 -0.0298352 0)
(10.0614 -0.0303713 0)
(10.0648 -0.030872 0)
(10.0681 -0.0313455 0)
(10.0713 -0.0317928 0)
(10.0006 -0.00622469 0)
(10.0031 -0.012735 0)
(10.0076 -0.0180602 0)
(10.0131 -0.0218501 0)
(10.0186 -0.02466 0)
(10.024 -0.0268799 0)
(10.0293 -0.0286399 0)
(10.0345 -0.0300354 0)
(10.0396 -0.0311669 0)
(10.0444 -0.0321097 0)
(10.0489 -0.0329112 0)
(10.0533 -0.0336028 0)
(10.0574 -0.0342081 0)
(10.0613 -0.0347453 0)
(10.065 -0.03523 0)
(10.0684 -0.0356759 0)
(10.0717 -0.0360965 0)
(10.0748 -0.0365039 0)
(10.0005 -0.00734174 0)
(10.0032 -0.0157201 0)
(10.0087 -0.0218718 0)
(10.0151 -0.025824 0)
(10.0212 -0.0288483 0)
(10.0269 -0.0313169 0)
(10.0325 -0.0332216 0)
(10.0378 -0.0346509 0)
(10.0429 -0.0357408 0)
(10.0478 -0.0365908 0)
(10.0524 -0.0372635 0)
(10.0567 -0.0378028 0)
(10.0608 -0.0382419 0)
(10.0646 -0.0386061 0)
(10.0683 -0.0389154 0)
(10.0716 -0.0391873 0)
(10.0748 -0.0394373 0)
(10.0778 -0.0396765 0)
(10.0001 -0.00807203 0)
(10.0031 -0.0198196 0)
(10.01 -0.0265549 0)
(10.0172 -0.0298443 0)
(10.0234 -0.0325142 0)
(10.0293 -0.0349478 0)
(10.035 -0.0369649 0)
(10.0406 -0.0385966 0)
(10.0457 -0.0399338 0)
(10.0506 -0.0410298 0)
(10.0552 -0.0419174 0)
(10.0594 -0.0426267 0)
(10.0635 -0.0431861 0)
(10.0672 -0.0436206 0)
(10.0707 -0.043952 0)
(10.074 -0.0442036 0)
(10.077 -0.0444066 0)
(10.0799 -0.0446173 0)
(9.99855 -0.00569807 0)
(10.0014 -0.0234717 0)
(10.0108 -0.0323666 0)
(10.0189 -0.0356594 0)
(10.025 -0.0374781 0)
(10.0306 -0.0385397 0)
(10.0362 -0.0390966 0)
(10.0416 -0.0394645 0)
(10.0466 -0.0398092 0)
(10.0513 -0.0401675 0)
(10.0557 -0.0405345 0)
(10.0598 -0.0409001 0)
(10.0636 -0.0412536 0)
(10.0671 -0.0415836 0)
(10.0704 -0.0418792 0)
(10.0734 -0.0421332 0)
(10.0761 -0.0423478 0)
(10.0784 -0.0425497 0)
(9.99327 0.000491246 0)
(9.99447 -0.0181919 0)
(10.0078 -0.0309994 0)
(10.0183 -0.0417476 0)
(10.0253 -0.0502237 0)
(10.0313 -0.0556184 0)
(10.0367 -0.0586174 0)
(10.0415 -0.0601262 0)
(10.0457 -0.0607106 0)
(10.0494 -0.0606967 0)
(10.0528 -0.0602991 0)
(10.0558 -0.0596663 0)
(10.0586 -0.0588969 0)
(10.061 -0.0580511 0)
(10.0632 -0.0571603 0)
(10.0651 -0.0562347 0)
(10.0667 -0.055279 0)
(10.0681 -0.0543512 0)
(9.98682 -0.0215128 0)
(9.98529 9.22189e-05 0)
(9.99732 0.02307 0)
(10.0065 0.0274491 0)
(10.0134 0.0225838 0)
(10.0192 0.0154055 0)
(10.0237 0.00791225 0)
(10.0267 0.000676765 0)
(10.0285 -0.00597563 0)
(10.0293 -0.0118791 0)
(10.0292 -0.0170036 0)
(10.0285 -0.0213919 0)
(10.0272 -0.0251132 0)
(10.0255 -0.0282389 0)
(10.0233 -0.0308298 0)
(10.0208 -0.0329212 0)
(10.0178 -0.0345052 0)
(10.0141 -0.0355141 0)
(10.0405 -0.330298 0)
(10.0412 -0.356838 0)
(10.0272 -0.306872 0)
(10.0049 -0.25967 0)
(9.98377 -0.221004 0)
(9.96383 -0.188934 0)
(9.94334 -0.162733 0)
(9.92171 -0.14162 0)
(9.89908 -0.124629 0)
(9.8757 -0.110886 0)
(9.85175 -0.0996996 0)
(9.82744 -0.0905327 0)
(9.80292 -0.0829664 0)
(9.77838 -0.0766698 0)
(9.75397 -0.0713747 0)
(9.72984 -0.0668441 0)
(9.70616 -0.0628051 0)
(9.68237 -0.0586866 0)
(9.91215 1.02634 0)
(9.89902 0.659762 0)
(9.80191 0.45829 0)
(9.67969 0.327775 0)
(9.55631 0.237949 0)
(9.43699 0.174653 0)
(9.32183 0.129015 0)
(9.21132 0.0954519 0)
(9.10605 0.070409 0)
(9.00629 0.0515229 0)
(8.91204 0.0371571 0)
(8.82316 0.0261513 0)
(8.73945 0.0176702 0)
(8.66067 0.0111052 0)
(8.5866 0.00601052 0)
(8.51703 0.00206525 0)
(8.45189 -0.000916239 0)
(8.38934 -0.00289496 0)
(0.0101454 -0.025688 -5.43648e-19)
(0.0242122 -0.0245461 4.47991e-19)
(0.0331111 -0.0141922 0)
(0.0341258 -0.00115917 0)
(0.0262395 0.0117995 0)
(0.0117502 0.0228121 -3.66708e-19)
(-0.00956873 0.030894 0)
(-0.0334461 0.0347717 0)
(-0.0596846 0.0365083 0)
(-0.087543 0.0373005 0)
(-0.116516 0.0376673 2.00631e-19)
(-0.146314 0.0378137 0)
(-0.176746 0.0378175 0)
(-0.20766 0.0377098 0)
(-0.238933 0.0375071 0)
(-0.270459 0.0372232 1.27485e-19)
(-0.302149 0.0368714 0)
(-0.333928 0.036465 0)
(-0.365734 0.036017 0)
(-0.397516 0.0355386 0)
(-0.429236 0.0350399 0)
(-0.460862 0.0345291 0)
(-0.492373 0.034013 0)
(-0.523757 0.0334967 8.16682e-20)
(-0.555005 0.0329846 -7.83388e-20)
(-0.586117 0.0324805 7.53093e-20)
(-0.617096 0.0319879 7.25412e-20)
(-0.647947 0.0315103 0)
(-0.678681 0.0310516 0)
(-0.709309 0.0306155 -6.55029e-20)
(-0.739843 0.0302059 -6.34998e-20)
(-0.770297 0.0298265 0)
(-0.800685 0.0294823 0)
(-0.831023 0.0291857 -5.82436e-20)
(-0.86139 0.0289384 0)
(-0.8918 0.028724 0)
(-0.922275 0.0285353 5.38593e-20)
(-0.952834 0.0283677 0)
(-0.983496 0.0282173 5.13208e-20)
(-1.01427 0.0280811 1.00295e-19)
(-1.04518 0.0279564 0)
(-1.07622 0.0278406 0)
(-1.10741 0.0277315 0)
(-1.13874 0.0276269 0)
(-1.17023 0.0275248 0)
(-1.20187 0.0274232 8.83269e-20)
(-1.23366 0.0273203 8.66213e-20)
(-1.2656 0.0272145 8.49841e-20)
(-1.29768 0.0271042 0)
(-1.32991 0.0269879 -8.18978e-20)
(-1.36226 0.0268643 0)
(-1.39473 0.0267322 7.90377e-20)
(-1.42731 0.0265903 7.76841e-20)
(-1.45998 0.0264377 0)
(-1.49274 0.0262735 0)
(-1.52556 0.0260968 0)
(-1.55843 0.025907 7.27124e-20)
(-1.59133 0.0257035 0)
(-1.62423 0.0254858 0)
(-1.65713 0.0252536 0)
(-1.69 0.0250065 0)
(-1.72282 0.0247444 0)
(-1.75556 0.0244672 0)
(-1.78821 0.024175 0)
(-1.82074 0.0238678 0)
(-1.85312 0.0235459 -6.34691e-20)
(-1.88534 0.0232096 0)
(-1.91737 0.0228593 0)
(-1.94919 0.0224955 6.07916e-20)
(-1.98077 0.0221189 5.99285e-20)
(-2.01209 0.0217301 0)
(-2.04313 0.0213299 -5.82366e-20)
(-2.07387 0.0209191 5.74048e-20)
(-2.10429 0.0204987 0)
(-2.13436 0.0200697 -5.57624e-20)
(-2.16406 0.0196329 0)
(-2.19338 0.0191895 0)
(-2.22229 0.0187404 5.33318e-20)
(-2.25079 0.0182865 0)
(-2.27884 0.0178286 -5.17201e-20)
(-2.30643 0.0173676 0)
(-2.33355 0.0169041 5.01061e-20)
(-2.36018 0.0164388 4.92962e-20)
(-2.38631 0.0159721 4.84833e-20)
(-2.41191 0.0155046 9.53339e-20)
(-2.43697 0.0150366 -9.36929e-20)
(-2.46147 0.0145684 0)
(-2.4854 0.0141003 0)
(-2.50873 0.0136323 0)
(-2.53144 0.0131642 -8.70358e-20)
(-2.55351 0.0126961 -8.53479e-20)
(-2.57491 0.0122273 8.36515e-20)
(-2.59562 0.0117574 0)
(-2.6156 0.0112857 -8.02363e-20)
(-2.63482 0.0108113 -7.85189e-20)
(-2.65325 0.0103329 -7.67954e-20)
(-2.67085 0.00984896 0)
(-2.68758 0.00935733 0)
(-2.70339 0.00885525 0)
(-2.71823 0.00833945 -6.98391e-20)
(-2.73204 0.00780644 0)
(-2.74476 0.00725298 0)
(-2.75632 0.00667674 6.45607e-20)
(-2.76665 0.00607664 0)
(-2.77567 0.00545257 0)
(-2.7833 0.00480432 5.92604e-20)
(-2.78946 0.00412971 0)
(-2.79405 0.00342271 0)
(-2.79697 0.00268814 -5.38973e-20)
(-2.79814 0.00193315 -5.20669e-20)
(-2.79746 0.00114949 0)
(-2.79483 0.000327202 4.8346e-20)
(-2.79012 -0.000538353 0)
(-2.78323 -0.00145116 -4.4508e-20)
(-2.77401 -0.00241489 0)
(-2.76233 -0.00343299 -4.04917e-20)
(-2.74805 -0.00450884 -3.83919e-20)
(-2.73103 -0.00564583 0)
(-2.71112 -0.00684742 0)
(-2.68818 -0.00811717 0)
(-2.66207 -0.0094588 0)
(-2.63264 -0.0108761 0)
(-2.59977 -0.0123731 0)
(-2.56332 -0.0139536 0)
(-2.52317 -0.0156213 -1.73687e-20)
(-2.47921 -0.0173792 1.38881e-20)
(-2.43132 -0.0192296 0)
(-2.37943 -0.0211734 0)
(-2.32345 -0.0232107 0)
(-2.26333 -0.0253402 0)
(-2.19902 -0.0275613 -1.71788e-20)
(-2.13049 -0.0298721 0)
(-2.05775 -0.0322666 4.16457e-20)
(-1.98081 -0.0347368 -5.5743e-20)
(-1.89972 -0.037277 0)
(-1.81454 -0.039884 0)
(-1.72535 -0.0425586 0)
(-1.63225 -0.0453011 1.28436e-19)
(-1.53537 -0.0481139 1.51741e-19)
(-1.43485 -0.051003 0)
(-1.33083 -0.0539675 2.06403e-19)
(-1.22349 -0.0570067 2.38467e-19)
(-1.11304 -0.0601218 -2.74255e-19)
(-0.999685 -0.0633192 0)
(-0.883639 -0.0665721 0)
(-0.765124 -0.06982 -4.09888e-19)
(-0.644326 -0.073165 0)
(-0.521863 -0.0761522 0)
(-0.396906 -0.0790089 0)
(-0.271728 -0.0823867 0)
(-0.144184 -0.0849298 7.80607e-19)
(-0.00906072 -0.0843405 7.93551e-19)
(0.122821 -0.0815356 0)
(0.254484 -0.0784698 7.21875e-19)
(0.384422 -0.0753815 0)
(0.511914 -0.0723021 0)
(0.636474 -0.0692334 6.52902e-19)
(0.757705 -0.0661731 0)
(0.875268 -0.0631215 6.21103e-19)
(0.988875 -0.0600831 0)
(1.09828 -0.0570656 0)
(1.20331 -0.0540793 5.85201e-19)
(1.3038 -0.0511356 0)
(1.39965 -0.0482457 5.66351e-19)
(1.49082 -0.0454203 0)
(1.57727 -0.0426685 0)
(1.65902 -0.039997 0)
(1.73609 -0.0374098 -5.36488e-19)
(1.80853 -0.0349074 0)
(1.87638 -0.0324863 5.24526e-19)
(1.93969 -0.030137 0)
(1.99844 -0.0278417 0)
(2.05259 -0.0255693 0)
(2.10195 -0.023266 0)
(2.14613 -0.0208337 0)
(2.1843 -0.0180798 0)
(2.21478 -0.0146053 0)
(2.23349 -0.00941299 -1.00263e-18)
(2.23281 0.000584794 0)
(2.16391 0.0271395 0)
(0.00248974 -0.0465282 1.26717e-18)
(0.00230936 -0.0282897 -7.49838e-19)
(-0.00569083 -0.00283523 0)
(-0.0180587 0.0207806 2.38553e-19)
(-0.0333894 0.040565 0)
(-0.0512152 0.0561437 9.33425e-20)
(-0.0712804 0.0675396 -1.73872e-19)
(-0.0933206 0.0752928 -1.63584e-19)
(-0.117205 0.0804596 0)
(-0.142649 0.0838839 -1.45919e-19)
(-0.16931 0.0861523 -6.91174e-20)
(-0.196892 0.0876323 0)
(-0.225161 0.0885437 0)
(-0.253938 0.0890207 0)
(-0.283083 0.089152 0)
(-0.312487 0.0890025 -5.3799e-20)
(-0.342063 0.0886244 0)
(-0.371742 0.0880621 9.85721e-20)
(-0.401472 0.087355 0)
(-0.431209 0.0865374 0)
(-0.460922 0.08564 -8.79275e-20)
(-0.490586 0.084689 0)
(-0.520187 0.0837069 8.22014e-20)
(-0.549715 0.082712 -3.9916e-20)
(-0.579166 0.0817194 3.87441e-20)
(-0.608541 0.0807407 -3.76576e-20)
(-0.637847 0.0797854 -3.6648e-20)
(-0.667094 0.0788611 0)
(-0.696296 0.0779751 0)
(-0.725469 0.0771342 3.40097e-20)
(-0.75463 0.0763454 -3.3078e-20)
(-0.783799 0.0756159 0)
(-0.812991 0.0749536 0)
(-0.842219 0.0743645 3.11883e-20)
(-0.871493 0.0738442 0)
(-0.900821 0.0733817 0)
(-0.930216 0.0729681 -2.94282e-20)
(-0.959689 0.0725956 0)
(-0.989252 0.0722576 2.82123e-20)
(-1.01891 0.0719479 -5.57708e-20)
(-1.04868 0.0716609 0)
(-1.07857 0.0713911 0)
(-1.10857 0.0711334 -1.05708e-19)
(-1.13869 0.0708832 -1.03998e-19)
(-1.16894 0.0706357 -1.02344e-19)
(-1.19931 0.0703867 5.0204e-20)
(-1.22979 0.070132 -4.97597e-20)
(-1.2604 0.0698676 -1.46682e-19)
(-1.29111 0.0695901 9.62107e-20)
(-1.32193 0.069296 4.75572e-20)
(-1.35284 0.0689821 0)
(-1.38384 0.0686456 -4.61852e-20)
(-1.41491 0.068284 4.51987e-20)
(-1.44603 0.0678948 0)
(-1.47721 0.0674761 0)
(-1.50841 0.067026 0)
(-1.53962 0.0665429 -4.30336e-20)
(-1.57083 0.0660256 0)
(-1.60202 0.0654731 8.34206e-20)
(-1.63316 0.0648846 0)
(-1.66424 0.0642595 8.11808e-20)
(-1.69524 0.0635977 0)
(-1.72613 0.0628991 -7.90183e-20)
(-1.7569 0.0621639 0)
(-1.78751 0.0613924 7.69218e-20)
(-1.81796 0.0605854 -3.78054e-20)
(-1.84821 0.0597437 0)
(-1.87825 0.0588682 -7.38764e-20)
(-1.90805 0.0579601 -3.65753e-20)
(-1.93759 0.0570209 -3.60795e-20)
(-1.96685 0.0560519 0)
(-1.99581 0.0550547 -3.48471e-20)
(-2.02444 0.054031 -3.46098e-20)
(-2.05273 0.0529826 0)
(-2.08065 0.0519113 3.36385e-20)
(-2.1082 0.0508188 -6.60836e-20)
(-2.13534 0.0497072 0)
(-2.16206 0.0485781 -3.21831e-20)
(-2.18835 0.0474333 0)
(-2.21419 0.0462744 9.34289e-20)
(-2.23955 0.0451027 0)
(-2.26443 0.0439194 -9.04959e-20)
(-2.28881 0.0427251 -2.97313e-20)
(-2.31267 0.0415202 2.90647e-20)
(-2.336 0.0403045 5.71412e-20)
(-2.35878 0.0390777 -5.61462e-20)
(-2.38099 0.0378386 0)
(-2.40261 0.0365857 0)
(-2.42363 0.0353174 0)
(-2.44401 0.0340317 1.56812e-19)
(-2.46375 0.0327264 5.13179e-20)
(-2.48281 0.0313993 -5.02712e-20)
(-2.50116 0.0300482 0)
(-2.51877 0.0286706 -4.79358e-20)
(-2.53561 0.0272638 4.71041e-20)
(-2.55164 0.0258247 4.60414e-20)
(-2.56681 0.0243491 0)
(-2.58109 0.0228321 0)
(-2.59441 0.0212675 0)
(-2.60673 0.0196486 4.17607e-20)
(-2.61799 0.017969 0)
(-2.62812 0.016223 -7.90354e-20)
(-2.63705 0.0144066 -1.15413e-19)
(-2.64472 0.0125174 7.47385e-20)
(-2.65104 0.0105535 0)
(-2.65592 0.00851042 3.51599e-20)
(-2.65928 0.00637848 0)
(-2.66099 0.00415095 6.61908e-20)
(-2.66101 0.00184211 -3.19475e-20)
(-2.65926 -0.000541589 -3.08621e-20)
(-2.65561 -0.00301607 0)
(-2.64996 -0.00559347 -8.6216e-20)
(-2.64218 -0.00828144 5.52235e-20)
(-2.63214 -0.0110852 2.65225e-20)
(-2.61972 -0.0140083 0)
(-2.60477 -0.0170524 2.42063e-20)
(-2.58714 -0.0202178 6.90144e-20)
(-2.5667 -0.0235034 0)
(-2.54329 -0.0269064 4.10663e-20)
(-2.51676 -0.0304228 3.84762e-20)
(-2.48698 -0.0340473 3.5786e-20)
(-2.45379 -0.0377729 0)
(-2.41706 -0.0415917 0)
(-2.37664 -0.0454944 0)
(-2.33242 -0.0494701 -1.19564e-20)
(-2.28426 -0.0535063 -9.98261e-21)
(-2.23207 -0.0575887 0)
(-2.17574 -0.0617021 -1.26694e-20)
(-2.11518 -0.0658309 -8.50905e-21)
(-2.05034 -0.0699587 0)
(-1.98116 -0.0740667 1.28768e-21)
(-1.90761 -0.0781347 1.1543e-20)
(-1.82967 -0.0821429 -1.19965e-20)
(-1.74734 -0.0860731 -1.61712e-20)
(-1.66066 -0.0899067 0)
(-1.56969 -0.0936249 0)
(-1.47448 -0.0972128 0)
(-1.37514 -0.100659 -4.61575e-20)
(-1.27178 -0.103952 5.15008e-20)
(-1.16456 -0.107084 1.23424e-19)
(-1.05363 -0.110043 -7.27941e-20)
(-0.939195 -0.112824 7.88835e-20)
(-0.821475 -0.115417 9.34593e-20)
(-0.700699 -0.11785 0)
(-0.577129 -0.120109 0)
(-0.450978 -0.122141 -1.23476e-19)
(-0.322399 -0.124126 0)
(-0.192331 -0.125925 0)
(-0.0580246 -0.127477 3.26399e-19)
(0.0751971 -0.129281 0)
(0.207775 -0.130351 1.72124e-19)
(0.33892 -0.129208 -1.84011e-19)
(0.466913 -0.126457 0)
(0.592887 -0.123046 1.89732e-19)
(0.716633 -0.119235 0)
(0.837777 -0.115127 0)
(0.955956 -0.110784 -2.10216e-19)
(1.07084 -0.106253 4.23979e-19)
(1.18213 -0.101576 -2.18463e-19)
(1.28959 -0.0967968 0)
(1.39299 -0.091955 0)
(1.49216 -0.0870906 2.24232e-19)
(1.58699 -0.0822403 0)
(1.67737 -0.0774372 2.29837e-19)
(1.76327 -0.0727097 0)
(1.84465 -0.0680813 0)
(1.92152 -0.063569 0)
(1.99391 -0.0591833 2.40958e-19)
(2.06187 -0.0549269 0)
(2.12543 -0.050793 -2.43432e-19)
(2.18462 -0.0467625 0)
(2.23946 -0.0427982 0)
(2.28988 -0.0388349 4.90329e-19)
(2.33576 -0.0347575 -4.92106e-19)
(2.37676 -0.030357 0)
(2.41222 -0.0252278 0)
(2.4409 -0.0185275 0)
(2.46014 -0.00835329 1.51423e-18)
(2.46658 0.0106162 0)
(2.44254 0.050865 -1.03359e-18)
(-0.00775063 -0.0363486 -1.28993e-21)
(-0.0192596 -0.00196008 6.65482e-19)
(-0.034075 0.0288751 0)
(-0.05108 0.0547525 -2.83996e-19)
(-0.0691258 0.0763907 0)
(-0.087843 0.0941128 0)
(-0.107434 0.108121 4.89729e-23)
(-0.128128 0.118762 9.42189e-20)
(-0.150019 0.1266 8.93515e-20)
(-0.173043 0.132234 8.51452e-20)
(-0.197042 0.136186 0)
(-0.221839 0.138862 0)
(-0.247265 0.140561 -7.43391e-20)
(-0.273175 0.141501 -1.42541e-19)
(-0.299451 0.141844 1.36864e-19)
(-0.326001 0.14171 0)
(-0.352748 0.141198 1.26777e-19)
(-0.379635 0.140387 -6.12087e-20)
(-0.406615 0.139344 0)
(-0.433654 0.138126 1.14376e-19)
(-0.460724 0.136781 5.54874e-20)
(-0.487807 0.135352 -1.07598e-19)
(-0.514889 0.133874 -5.23531e-20)
(-0.541963 0.132376 0)
(-0.569024 0.130883 9.91718e-20)
(-0.596073 0.129414 9.67444e-20)
(-0.623114 0.127986 0)
(-0.650155 0.126611 9.23578e-20)
(-0.677204 0.125299 0)
(-0.704273 0.124059 8.84995e-20)
(-0.731372 0.122897 4.34451e-20)
(-0.758513 0.121818 0)
(-0.785704 0.120825 0)
(-0.812953 0.119918 0)
(-0.840267 0.119092 0)
(-0.867653 0.118339 0)
(-0.895117 0.117651 0)
(-0.922669 0.11702 7.65997e-20)
(-0.950314 0.116437 -1.1316e-19)
(-0.97806 0.115893 0)
(-1.00591 0.115382 0)
(-1.03387 0.114894 0)
(-1.06195 0.114423 1.82006e-22)
(-1.09013 0.113961 7.00421e-20)
(-1.11843 0.113502 1.37881e-19)
(-1.14685 0.113037 -1.35914e-19)
(-1.17537 0.112562 -6.69045e-20)
(-1.20399 0.11207 6.61538e-20)
(-1.23271 0.111555 -1.86641e-22)
(-1.26153 0.111013 6.41565e-20)
(-1.29042 0.110438 0)
(-1.31938 0.109825 6.24213e-20)
(-1.3484 0.109172 -1.86466e-22)
(-1.37747 0.108474 0)
(-1.40657 0.107729 0)
(-1.43568 0.106933 -5.91466e-20)
(-1.4648 0.106083 0)
(-1.4939 0.10518 0)
(-1.52296 0.10422 5.66535e-20)
(-1.55197 0.103202 1.12174e-19)
(-1.5809 0.102127 -5.55275e-20)
(-1.60974 0.100993 0)
(-1.63847 0.0998007 5.40774e-20)
(-1.66706 0.0985508 0)
(-1.69549 0.0972438 5.23217e-20)
(-1.72375 0.095881 5.19605e-20)
(-1.7518 0.0944638 -1.02208e-19)
(-1.77964 0.0929939 -5.02587e-20)
(-1.80724 0.0914734 0)
(-1.83457 0.0899046 9.81241e-20)
(-1.86161 0.0882899 0)
(-1.88835 0.0866319 1.43299e-19)
(-1.91477 0.0849336 9.40958e-20)
(-1.94084 0.0831978 9.27589e-20)
(-1.96655 0.0814275 -9.14227e-20)
(-1.99188 0.0796258 1.3526e-19)
(-2.01681 0.0777955 0)
(-2.04132 0.0759395 0)
(-2.06541 0.0740605 -8.60602e-20)
(-2.08904 0.072161 -1.2718e-19)
(-2.11221 0.070243 0)
(-2.1349 0.0683082 4.11029e-20)
(-2.1571 0.0663578 0)
(-2.17879 0.0643921 -1.18964e-19)
(-2.19995 0.0624111 -1.92743e-22)
(-2.22058 0.0604138 1.85583e-22)
(-2.24065 0.0583986 7.50583e-20)
(-2.26015 0.0563631 0)
(-2.27906 0.0543042 -7.22236e-20)
(-2.29735 0.0522185 -1.58661e-22)
(-2.31501 0.0501019 0)
(-2.33201 0.04795 0)
(-2.34832 0.0457583 0)
(-2.36391 0.0435217 6.5134e-20)
(-2.37875 0.0412351 0)
(-2.3928 0.0388922 0)
(-2.40601 0.0364865 0)
(-2.41834 0.0340099 0)
(-2.42974 0.0314537 0)
(-2.44015 0.0288086 5.61701e-20)
(-2.44952 0.0260651 0)
(-2.45778 0.023215 5.33103e-20)
(-2.46487 0.0202511 5.18249e-20)
(-2.47071 0.0171678 -5.03429e-20)
(-2.47523 0.0139594 0)
(-2.47833 0.0106184 -4.73942e-20)
(-2.47992 0.0071323 0)
(-2.47991 0.00351179 -4.44206e-20)
(-2.47826 -0.000228353 4.29136e-20)
(-2.47485 -0.00410189 1.24108e-19)
(-2.46958 -0.00812884 0)
(-2.46234 -0.0123249 1.1502e-19)
(-2.453 -0.0167013 3.6776e-20)
(-2.44142 -0.0212658 0)
(-2.42749 -0.0260236 6.73895e-20)
(-2.41104 -0.0309768 6.42139e-20)
(-2.39195 -0.0361254 -9.14394e-20)
(-2.37006 -0.0414666 0)
(-2.34522 -0.0469954 -2.70748e-20)
(-2.31728 -0.0527044 -2.53054e-20)
(-2.28609 -0.0585837 -7.06161e-20)
(-2.25151 -0.0646212 0)
(-2.21338 -0.0708024 0)
(-2.17158 -0.0771103 0)
(-2.12596 -0.0835253 -1.57285e-20)
(-2.0764 -0.0900246 0)
(-2.02279 -0.0965829 0)
(-1.96504 -0.103173 8.10978e-21)
(-1.90304 -0.109766 5.42219e-21)
(-1.83674 -0.116334 0)
(-1.76608 -0.122845 0)
(-1.69101 -0.129264 -7.24388e-21)
(-1.61154 -0.135554 0)
(-1.52766 -0.141682 2.11491e-20)
(-1.4394 -0.147615 2.75141e-20)
(-1.34681 -0.153318 0)
(-1.24999 -0.15876 0)
(-1.14904 -0.163918 -5.24818e-20)
(-1.04409 -0.168762 -1.73726e-21)
(-0.935307 -0.173273 -1.90603e-21)
(-0.822894 -0.177425 0)
(-0.707064 -0.181203 -1.86411e-19)
(-0.588082 -0.184577 0)
(-0.466176 -0.187578 0)
(-0.341673 -0.190184 0)
(-0.214851 -0.19238 1.41608e-19)
(-0.0855113 -0.19419 0)
(0.0444969 -0.195384 -3.1759e-19)
(0.174881 -0.195682 -1.70836e-19)
(0.304204 -0.195166 0)
(0.432286 -0.19371 -1.87199e-19)
(0.558754 -0.191045 0)
(0.683074 -0.187381 0)
(0.805181 -0.182954 -6.26648e-19)
(0.924764 -0.177914 4.30687e-19)
(1.04148 -0.172358 0)
(1.15499 -0.166367 4.59338e-19)
(1.26502 -0.160011 -2.39463e-19)
(1.3713 -0.153363 0)
(1.47362 -0.146492 0)
(1.57181 -0.139466 0)
(1.66573 -0.13235 -7.80559e-19)
(1.75529 -0.125205 0)
(1.84042 -0.118085 -2.70977e-19)
(1.92111 -0.111039 0)
(1.99736 -0.104106 0)
(2.06918 -0.0973167 0)
(2.13663 -0.0906899 0)
(2.19977 -0.0842341 0)
(2.25865 -0.0779424 0)
(2.31332 -0.0717892 -5.81654e-19)
(2.3638 -0.0657219 0)
(2.41009 -0.0596457 -2.96234e-19)
(2.45207 -0.0533945 8.9157e-19)
(2.4895 -0.0466718 0)
(2.52193 -0.0389232 0)
(2.54856 -0.0290679 -6.05797e-19)
(2.56792 -0.0148404 -6.14018e-19)
(2.57993 0.00874157 6.19183e-19)
(2.5786 0.0512756 6.29022e-19)
(-0.0147523 -0.00418472 -1.94325e-18)
(-0.0311861 0.0374423 -7.78615e-19)
(-0.0486972 0.068419 -2.91631e-19)
(-0.0682111 0.0941126 -1.07115e-19)
(-0.0879232 0.115847 0)
(-0.107465 0.134081 1.58952e-19)
(-0.127122 0.149031 -7.30764e-20)
(-0.14718 0.160935 0)
(-0.167803 0.170139 -6.48843e-20)
(-0.189053 0.177049 0)
(-0.210919 0.18207 1.18284e-19)
(-0.23334 0.185566 0)
(-0.25624 0.18784 5.44636e-20)
(-0.279536 0.189141 1.04797e-19)
(-0.303153 0.189664 -1.00975e-19)
(-0.327025 0.189568 0)
(-0.351098 0.18898 -9.41608e-20)
(-0.375328 0.188006 0)
(-0.399679 0.186733 0)
(-0.424124 0.185236 -8.57134e-20)
(-0.448641 0.183576 0)
(-0.473214 0.181808 2.68154e-23)
(-0.497834 0.179975 0)
(-0.522491 0.178115 0)
(-0.547183 0.17626 -3.88923e-23)
(-0.571908 0.174435 -7.35311e-20)
(-0.59667 0.17266 -7.19011e-20)
(-0.62147 0.170951 -7.04613e-20)
(-0.646316 0.16932 0)
(-0.671212 0.167777 -1.35432e-19)
(-0.696167 0.166328 0)
(-0.721186 0.164977 -6.52512e-20)
(-0.746275 0.163724 0)
(-0.77144 0.162567 0)
(-0.796685 0.161502 6.20195e-20)
(-0.822016 0.16052 0)
(-0.847438 0.159615 -6.00858e-20)
(-0.872957 0.158775 -7.92573e-23)
(-0.898577 0.157993 1.16664e-19)
(-0.924302 0.157259 -1.14877e-19)
(-0.950135 0.156561 0)
(-0.976079 0.155892 0)
(-1.00213 0.15524 -5.49413e-20)
(-1.0283 0.154597 0)
(-1.05458 0.153954 -5.36151e-20)
(-1.08096 0.153302 5.2891e-20)
(-1.10744 0.152632 5.21828e-20)
(-1.13403 0.151937 0)
(-1.1607 0.15121 -5.08097e-20)
(-1.18746 0.150443 -5.01429e-20)
(-1.21428 0.14963 9.87925e-20)
(-1.24117 0.148765 -4.8845e-20)
(-1.26811 0.147844 -4.82124e-20)
(-1.29509 0.14686 0)
(-1.32209 0.14581 0)
(-1.34909 0.144691 4.63733e-20)