/*--------------------------------*- C++ -*----------------------------------*\
| =========                 |                                                 |
| \\      /  F ield         | OpenFOAM: The Open Source CFD Toolbox           |
|  \\    /   O peration     | Version:  plus                                  |
|   \\  /    A nd           | Website:  www.openfoam.com                      |
|    \\/     M anipulation  |                                                 |
\*---------------------------------------------------------------------------*/
FoamFile
{
    version     2.0;
    format      ascii;
    class       volScalarField;
    location    "50";
    object      epsilon;
}
// * * * * * * * * * * * * * * * * * * * * * * * * * * * * * * * * * * * * * //

dimensions      [0 2 -3 0 0 0 0];


internalField   nonuniform List<scalar> 
12225
(
1643.68
2838.65
3792.98
4450.47
4859.6
5087.78
5193.12
5218.82
5194.74
5140.7
5069.5
4989.22
4904.84
4819.34
4734.34
4650.49
4566.99
4489.56
169.233
319.37
441.405
540.127
613.102
663.045
695.372
715.361
727.197
733.917
737.621
739.72
741.154
742.57
744.477
747.565
754.591
766.998
38.9407
67.8821
93.2405
115.173
133.412
147.911
159.049
167.398
173.552
178.048
181.345
183.817
185.769
187.45
189.09
190.951
193.445
196.714
20.1679
27.6454
35.0739
41.972
48.1456
53.5009
58.0417
61.8313
64.96
67.5267
69.6288
71.3583
72.7996
74.0314
75.1302
76.1775
77.2646
78.4432
16.1478
18.4472
21.0543
23.6739
26.1687
28.4652
30.5321
32.3648
33.9741
35.3786
36.6007
37.6649
38.5959
39.4188
40.1593
40.8445
41.5027
42.1495
15.0841
15.7478
16.6662
17.7009
18.7657
19.8071
20.7941
21.7113
22.5525
23.3178
24.0106
24.6368
25.2035
25.7189
26.1922
26.6331
27.052
27.4512
14.7912
14.8911
15.1363
15.4832
15.8915
16.3293
16.7741
17.2109
17.6306
18.0281
18.4012
18.7495
19.074
19.3768
19.6609
19.9295
20.1866
20.4305
14.7132
14.6257
14.6063
14.6485
14.7403
14.8682
15.02
15.1859
15.3585
15.5326
15.7046
15.8723
16.0345
16.1909
16.3418
16.4881
16.6306
16.7673
14.6934
14.5489
14.4345
14.3519
14.2996
14.2741
14.2708
14.2851
14.3128
14.3504
14.3953
14.4451
14.4983
14.554
14.6115
14.6705
14.7309
14.7909
14.6886
14.5284
14.3836
14.2557
14.1451
14.0513
13.9734
13.9096
13.8583
13.8179
13.7866
13.7633
13.7466
13.7357
13.7299
13.7287
13.7317
13.7376
14.6874
14.5232
14.3698
14.2274
14.0962
13.9761
13.8667
13.7677
13.6784
13.5981
13.5262
13.4618
13.4044
13.3534
13.3083
13.2687
13.2342
13.2043
14.687
14.5219
14.3664
14.2202
14.0831
13.9547
13.8348
13.7231
13.6192
13.5228
13.4334
13.3507
13.2743
13.2039
13.139
13.0795
13.0251
12.9757
14.6869
14.5214
14.3654
14.218
14.079
13.9478
13.8242
13.7076
13.5978
13.4945
13.3974
13.3061
13.2204
13.1401
13.0649
12.9946
12.9291
12.8686
14.6867
14.5212
14.3649
14.2173
14.0777
13.9457
13.8208
13.7027
13.5909
13.485
13.3849
13.2901
13.2005
13.1159
13.0359
12.9605
12.8894
12.8232
14.6866
14.521
14.3646
14.2169
14.0772
13.9451
13.8199
13.7014
13.5891
13.4826
13.3817
13.286
13.1953
13.1093
13.0278
12.9506
12.8776
12.8093
14.6865
14.5208
14.3644
14.2167
14.077
13.9448
13.8196
13.7011
13.5888
13.4823
13.3813
13.2855
13.1947
13.1085
13.0268
12.9493
12.8759
12.8071
14.6864
14.5207
14.3643
14.2165
14.0768
13.9446
13.8195
13.7011
13.5888
13.4824
13.3816
13.286
13.1952
13.1092
13.0276
12.9502
12.8769
12.8081
14.6863
14.5206
14.3641
14.2164
14.0767
13.9446
13.8195
13.7012
13.5891
13.4829
13.3822
13.2868
13.1963
13.1104
13.029
12.9518
12.8786
12.81
14.6863
14.5205
14.3641
14.2163
14.0767
13.9447
13.8198
13.7016
13.5896
13.4836
13.3831
13.2879
13.1976
13.112
13.0309
12.9539
12.8809
12.8124
14.6863
14.5205
14.3641
14.2164
14.0769
13.945
13.8202
13.7022
13.5905
13.4847
13.3844
13.2895
13.1994
13.1141
13.0332
12.9564
12.8837
12.8154
14.6863
14.5206
14.3643
14.2167
14.0773
13.9456
13.8211
13.7034
13.592
13.4867
13.3869
13.2925
13.2031
13.1184
13.0382
12.9622
12.8903
12.8228
14.6864
14.5208
14.3647
14.2176
14.0789
13.9482
13.8251
13.7091
13.5999
13.497
13.4002
13.309
13.2231
13.1422
13.0659
12.9941
12.9264
12.8633
14.6867
14.522
14.3679
14.2242
14.0908
13.9674
13.8535
13.7487
13.6523
13.5638
13.4824
13.4077
13.3388
13.2754
13.2168
13.1626
13.1124
13.0663
14.689
14.5321
14.3938
14.2747
14.1747
14.0925
14.0264
13.9741
13.9337
13.903
13.8802
13.8636
13.852
13.8441
13.839
13.8359
13.8343
13.8341
14.7095
14.6112
14.5704
14.5816
14.6352
14.721
14.8293
14.9521
15.0828
15.2165
15.3494
15.479
15.6033
15.7211
15.8317
15.9346
16.0298
16.1175
14.8663
15.1116
15.5286
16.0514
16.6311
17.2315
17.8278
18.4038
18.9499
19.4604
19.9328
20.3661
20.761
21.1187
21.441
21.7301
21.9883
22.2181
15.8902
17.7923
19.977
22.2035
24.3659
26.4047
28.2895
30.0081
31.5588
32.9458
34.177
35.2623
36.213
37.0408
37.7573
38.3737
38.9
39.3473
22.4259
32.243
41.4181
49.8682
57.6186
64.6097
70.8165
76.2523
80.9537
84.9724
88.3694
91.2104
93.5619
95.4877
97.0467
98.29
99.2576
99.974
73.419
128.573
175.668
218.485
257.297
291.377
320.483
344.775
364.648
380.621
393.253
403.089
410.632
416.32
420.523
423.536
425.558
426.609
819.19
1245.06
1627.99
1948.34
2236.4
2485.26
2692.86
2860.6
2992.02
3091.71
3164.53
3215.15
3247.77
3266.07
3273.12
3271.51
3263.35
3250.19
4.76064
3.71191
6.39453
11.1675
16.9714
23.7509
31.4217
39.947
49.2626
59.2524
69.8511
81.0036
92.6588
104.769
117.287
130.173
143.385
156.885
170.639
184.612
198.774
213.096
227.55
242.112
256.758
271.466
286.216
300.991
315.772
330.546
345.296
360.012
374.68
389.291
403.835
418.304
432.69
446.987
461.19
475.292
489.29
503.182
516.963
530.632
544.187
557.628
570.955
584.166
597.263
610.247
623.118
635.878
648.528
661.069
673.504
685.833
698.056
710.175
722.189
734.098
745.902
757.597
769.184
780.659
792.019
803.263
814.386
825.387
836.262
847.01
857.631
868.123
878.49
888.735
898.867
908.9
918.854
928.766
938.486
947.792
956.643
964.995
972.801
980.011
986.573
992.429
997.519
1001.78
1005.14
1007.52
1008.86
1009.08
1008.09
1005.81
1002.17
997.091
990.493
982.31
972.483
960.962
947.712
932.712
915.962
897.48
877.305
855.501
832.15
807.361
781.261
753.995
725.724
696.62
666.867
636.666
606.191
575.518
544.672
514.439
486.076
458.68
431.467
409.601
391.598
374.663
358.441
342.893
328.021
313.828
300.31
287.457
275.253
263.681
252.719
242.344
232.531
223.257
214.495
206.221
198.41
191.037
184.079
177.514
171.32
165.475
159.961
154.759
149.85
145.219
140.849
136.725
132.835
129.164
125.701
122.434
119.353
116.447
113.708
111.127
108.694
106.404
104.249
102.23
100.336
98.5595
96.8919
95.3268
93.8582
92.4805
91.188
89.9749
88.8351
87.7611
86.7441
85.7725
84.8305
83.8947
82.9285
81.8676
80.5951
78.6167
16.3902
11.6902
13.9339
18.2464
23.8505
30.271
37.1833
44.3928
51.7775
59.2516
66.7563
74.248
81.693
89.0659
96.3476
103.525
110.588
117.53
124.348
131.039
137.604
144.042
150.354
156.543
162.608
168.552
174.378
180.085
185.676
191.153
196.515
201.766
206.905
211.934
216.854
221.667
226.372
230.972
235.468
239.86
244.152
248.343
252.436
256.432
260.335
264.146
267.868
271.503
275.055
278.526
281.921
285.241
288.491
291.675
294.795
297.855
300.858
303.808
306.709
309.562
312.372
315.142
317.874
320.573
323.242
325.887
328.511
331.121
333.724
336.326
338.936
341.564
344.221
346.919
349.673
352.503
355.431
358.489
361.718
365.181
368.625
372.027
375.378
378.668
381.886
385.019
388.05
390.961
393.731
396.334
398.742
400.925
402.847
404.468
405.748
406.641
407.101
407.079
406.526
405.396
403.642
401.222
398.1
394.246
389.638
384.264
378.121
371.219
363.576
355.225
346.207
336.571
326.377
315.685
304.559
293.054
281.226
269.187
256.797
243.953
231.079
219.064
208.081
197.776
188.009
178.744
169.965
161.656
153.802
146.384
139.383
132.78
126.554
120.688
115.161
109.955
105.052
100.434
96.0864
91.9921
88.1365
84.5056
81.0861
77.8655
74.8319
71.9742
69.2822
66.746
64.3564
62.1051
59.9838
57.9852
56.1022
54.3283
52.6573
51.0834
49.6014
48.2061
46.8928
45.6572
44.4951
43.4063
42.388
41.4332
40.5379
39.6987
38.9123
38.176
37.4874
36.8446
36.2458
35.6899
35.1764
34.7061
34.2822
33.9132
33.6205
33.4627
33.6337
34.8591
37.9017
21.0164
22.1853
26.4561
32.1046
38.5604
45.4471
52.5206
59.6352
66.7032
73.6707
80.5043
87.1842
93.7001
100.048
106.231
112.252
118.119
123.838
129.418
134.866
140.188
145.392
150.483
155.464
160.339
165.112
169.783
174.355
178.828
183.202
187.478
191.655
195.733
199.711
203.589
207.366
211.042
214.617
218.089
221.459
224.727
227.893
230.957
233.92
236.783
239.545
242.21
244.778
247.251
249.63
251.918
254.118
256.232
258.263
260.214
262.09
263.895
265.632
267.307
268.925
270.492
272.014
273.497
274.949
276.378
277.793
279.202
280.616
282.045
283.501
284.994
286.538
288.145
289.828
291.602
293.481
295.48
297.617
299.844
302.126
304.461
306.848
309.286
311.774
314.306
316.874
319.469
322.075
324.673
327.241
329.749
332.165
334.449
336.559
338.445
340.056
341.334
342.221
342.659
342.588
341.953
340.7
338.785
336.169
332.823
328.729
323.879
318.28
311.947
304.909
297.202
288.871
279.959
270.507
260.536
250.09
239.065
227.342
215.876
204.813
194.43
184.732
175.539
166.754
158.352
150.332
142.7
135.454
128.591
122.103
115.977
110.202
104.761
99.6389
94.8192
90.2856
86.0222
82.0133
78.2438
74.6995
71.3666
68.2321
65.284
62.5106
59.9013
57.446
55.1352
52.96
50.9123
48.9844
47.169
45.4595
43.8495
42.3334
40.9055
39.5608
38.2946
37.1023
35.9799
34.9235
33.9299
32.9966
32.1207
31.2982
30.526
29.8012
29.1212
28.4836
27.8867
27.3287
26.8087
26.3264
25.8826
25.4804
25.1275
24.842
24.6682
24.7258
25.3221
60.9565
30.2579
29.798
33.7246
39.2053
45.5048
52.2285
59.1254
66.045
72.9004
79.6424
86.2447
92.6955
98.9922
105.139
111.143
117.014
122.762
128.398
133.93
139.368
144.718
149.985
155.172
160.284
165.32
170.28
175.165
179.973
184.701
189.347
193.908
198.382
202.764
207.051
211.241
215.33
219.315
223.193
226.962
230.619
234.161
237.586
240.893
244.081
247.147
250.09
252.91
255.606
258.178
260.626
262.95
265.15
267.229
269.187
271.027
272.751
274.362
275.864
277.263
278.562
279.769
280.889
281.931
282.902
283.814
284.675
285.496
286.291
287.07
287.848
288.638
289.455
290.313
291.228
292.214
293.286
294.458
295.748
297.115
298.558
300.08
301.687
303.383
305.17
307.049
309.014
311.061
313.176
315.345
317.546
319.754
321.937
324.056
326.067
327.922
329.567
330.944
331.992
332.649
332.852
332.539
331.654
330.144
327.965
325.079
321.459
317.09
311.965
306.09
299.479
292.157
284.154
275.5
266.217
256.222
245.61
234.583
223.61
212.914
202.602
192.753
183.361
174.364
165.718
157.414
149.456
141.853
134.611
127.73
121.209
115.039
109.211
103.714
98.5324
93.6533
89.0612
84.741
80.6777
76.8567
73.2639
69.8855
66.7088
63.7213
60.9115
58.2684
55.7817
53.4419
51.2398
49.167
47.2156
45.3783
43.6481
42.0187
40.4839
39.0382
37.6764
36.3936
35.1852
34.0469
32.9747
31.9651
31.0148
30.121
29.2805
28.4901
27.7469
27.0484
26.3921
25.776
25.1985
24.6584
24.155
23.6891
23.2629
22.8826
22.562
22.3321
22.2615
22.4786
84.485
38.6134
36.1009
39.4656
44.6572
50.711
57.2001
63.876
70.5932
77.2699
83.8627
90.351
96.7283
102.997
109.164
115.24
121.235
127.161
133.028
138.844
144.616
150.349
156.045
161.707
167.334
172.925
178.475
183.982
189.441
194.846
200.191
205.47
210.676
215.804
220.846
225.797
230.649
235.397
240.035
244.557
248.959
253.234
257.378
261.388
265.257
268.983
272.562
275.991
279.265
282.384
285.343
288.142
290.777
293.248
295.554
297.695
299.671
301.483
303.132
304.622
305.956
307.138
308.174
309.07
309.835
310.478
311.009
311.438
311.78
312.048
312.256
312.42
312.557
312.685
312.822
312.986
313.197
313.473
313.834
314.256
314.741
315.297
315.934
316.661
317.484
318.407
319.431
320.552
321.764
323.054
324.404
325.791
327.186
328.556
329.858
331.047
332.073
332.882
333.417
333.621
333.435
332.8
331.664
329.976
327.69
324.766
321.174
316.887
311.888
306.167
299.721
292.555
284.667
276.09
266.755
256.62
246.319
235.938
225.649
215.562
205.754
196.264
187.095
178.229
169.658
161.385
153.422
145.781
138.472
131.501
124.871
118.577
112.615
106.976
101.649
96.6209
91.8798
87.4118
83.2031
79.24
75.5091
71.9971
68.6916
65.5803
62.6518
59.8951
57.2999
54.8564
52.5555
50.3886
48.3476
46.4248
44.6133
42.9064
41.2978
39.7817
38.3528
37.0059
35.7363
34.5396
33.4115
32.3482
31.3463
30.4025
29.5136
28.6765
27.8881
27.1458
26.4471
25.79
25.1727
24.5939
24.0528
23.5497
23.0867
22.6687
22.3066
22.0222
21.8559
21.8649
106.291
45.6713
40.8924
43.5279
48.3349
54.0903
60.3125
66.7492
73.2603
79.7698
86.2399
92.655
99.0128
105.319
111.583
117.816
124.031
130.237
136.445
142.663
148.894
155.143
161.411
167.697
173.997
180.308
186.623
192.936
199.238
205.521
211.776
217.991
224.159
230.268
236.308
242.27
248.143
253.919
259.587
265.14
270.567
275.862
281.015
286.021
290.87
295.557
300.074
304.416
308.577
312.55
316.33
319.912
323.292
326.465
329.427
332.174
334.704
337.015
339.105
340.973
342.62
344.048
345.259
346.257
347.048
347.638
348.037
348.253
348.299
348.188
347.934
347.555
347.067
346.49
345.846
345.155
344.44
343.727
343.037
342.364
341.71
341.088
340.512
339.995
339.55
339.186
338.906
338.714
338.605
338.571
338.598
338.668
338.755
338.83
338.855
338.791
338.593
338.216
337.615
336.744
335.557
334.009
332.059
329.672
326.808
323.435
319.524
315.039
309.959
304.252
297.889
290.859
283.072
274.559
265.45
256.072
246.568
237.024
227.528
218.147
208.934
199.921
191.122
182.542
174.189
166.079
158.229
150.658
143.378
136.402
129.736
123.381
117.336
111.596
106.155
101.003
96.1295
91.5241
87.1746
83.069
79.1952
75.5413
72.0955
68.8464
65.7831
62.8951
60.1723
57.6053
55.1849
52.9028
50.7507
48.7211
46.8069
45.0014
43.2982
41.6914
40.1755
38.7452
37.3958
36.1224
34.921
33.7875
32.7181
31.7096
30.7583
29.8608
29.0143
28.216
27.4634
26.7544
26.087
25.46
24.8725
24.3246
23.8181
23.357
22.95
22.6126
22.369
22.2459
124.97
51.2736
44.2238
46.0246
50.367
55.7786
61.7105
67.8972
74.1989
80.5438
86.8979
93.2494
99.5994
105.956
112.331
118.737
125.186
131.691
138.259
144.9
151.617
158.413
165.287
172.237
179.258
186.344
193.487
200.677
207.902
215.152
222.413
229.673
236.918
244.133
251.306
258.423
265.469
272.432
279.298
286.056
292.691
299.194
305.551
311.753
317.788
323.647
329.319
334.795
340.065
345.121
349.954
354.556
358.919
363.034
366.895
370.495
373.826
376.884
379.663
382.158
384.366
386.284
387.912
389.248
390.295
391.057
391.537
391.743
391.683
391.369
390.812
390.028
389.033
387.846
386.488
384.982
383.353
381.627
379.829
377.971
376.058
374.108
372.141
370.178
368.236
366.328
364.464
362.652
360.891
359.177
357.499
355.841
354.181
352.493
350.744
348.899
346.919
344.77
342.421
339.847
337.023
333.927
330.546
326.87
322.882
318.574
313.931
308.902
303.487
297.619
291.208
284.219
276.609
268.712
260.541
252.2
243.748
235.237
226.716
218.229
209.814
201.497
193.298
185.234
177.324
169.588
162.051
154.733
147.654
140.829
134.27
127.983
121.972
116.236
110.773
105.578
100.643
95.9622
91.5252
87.3227
83.3448
79.5814
76.0223
72.6575
69.4772
66.4718
63.6321
60.9493
58.4147
56.0204
53.7586
51.6219
49.6034
47.6965
45.895
44.193
42.585
41.0659
39.6306
38.2746
36.9935
35.7834
34.6406
33.5607
32.5403
31.5762
30.6653
29.8048
28.9924
28.2256
27.5028
26.8223
26.1835
25.5864
25.0323
24.5247
24.0704
23.6805
23.369
23.1489
139.723
55.4143
46.2631
47.1891
51.0067
56.0302
61.6439
67.5624
73.6418
79.8106
86.0367
92.3106
98.6356
105.022
111.483
118.033
124.686
131.454
138.348
145.375
152.54
159.846
167.292
174.875
182.59
190.429
198.381
206.437
214.581
222.801
231.081
239.403
247.752
256.111
264.461
272.785
281.066
289.286
297.428
305.476
313.413
321.224
328.892
336.404
343.746
350.902
357.86
364.607
371.13
377.416
383.455
389.233
394.741
399.965
404.896
409.523
413.836
417.824
421.479
424.792
427.755
430.36
432.602
434.477
435.981
437.113
437.874
438.266
438.293
437.962
437.282
436.265
434.924
433.274
431.334
429.126
426.674
424.001
421.133
418.096
414.907
411.59
408.174
404.684
401.146
397.577
393.995
390.409
386.823
383.234
379.633
376.003
372.323
368.566
364.701
360.692
356.506
352.113
347.498
342.66
337.602
332.337
326.898
321.314
315.598
309.8
303.941
297.934
291.807
285.43
278.758
271.995
265.096
258.108
251.029
243.863
236.617
229.306
221.947
214.56
207.168
199.791
192.446
185.155
177.938
170.82
163.827
156.984
150.313
143.833
137.562
131.509
125.685
120.093
114.736
109.614
104.723
100.06
95.6193
91.3948
87.3793
83.5653
79.9449
76.5101
73.2527
70.1649
67.2385
64.466
61.8398
59.3525
56.9973
54.7672
52.6558
50.6571
48.765
46.9741
45.279
43.6746
42.1563
40.7196
39.3601
38.0741
36.8572
35.7051
34.6145
33.5821
32.6051
31.6806
30.8062
29.9797
29.1991
28.463
27.7707
27.1221
26.5184
25.9624
25.4593
25.017
24.6429
24.3437
150.196
58.1799
47.2236
47.2931
50.5496
55.1448
60.4071
66.0302
71.8623
77.8292
83.8986
90.0617
96.3229
102.694
109.189
115.825
122.618
129.58
136.723
144.057
151.588
159.32
167.251
175.38
183.701
192.207
200.887
209.727
218.715
227.833
237.064
246.389
255.789
265.243
274.73
284.229
293.718
303.178
312.585
321.92
331.163
340.292
349.29
358.138
366.816
375.308
383.595
391.663
399.493
407.071
414.381
421.407
428.136
434.551
440.639
446.386
451.777
456.798
461.437
465.681
469.516
472.932
475.918
478.464
480.563
482.208
483.394
484.12
484.385
484.191
483.542
482.447
480.914
478.955
476.584
473.818
470.679
467.186
463.36
459.235
454.847
450.231
445.422
440.454
435.359
430.164
424.889
419.548
414.147
408.684
403.147
397.515
391.761
385.852
379.753
373.422
366.823
359.93
352.739
345.264
337.538
329.615
321.615
313.607
305.61
297.785
290.145
282.58
275.305
268.324
261.61
255.153
248.9
242.793
236.774
230.791
224.804
218.787
212.722
206.604
200.432
194.212
187.955
181.676
175.395
169.135
162.921
156.778
150.732
144.805
139.017
133.383
127.917
122.628
117.525
112.61
107.887
103.356
99.0154
94.8629
90.895
87.1072
83.4947
80.052
76.7733
73.6528
70.6843
67.8618
65.179
62.6301
60.209
57.9099
55.7272
53.6554
51.6893
49.8238
48.0541
46.3756
44.7838
43.2745
41.844
40.4875
39.2007
37.98
36.8222
35.7241
34.683
33.6961
32.7609
31.8754
31.0376
30.2463
29.5006
28.8004
28.1467
27.5419
26.9897
26.4956
26.0627
25.6948
156.343
59.71
47.3298
46.6091
49.294
53.4307
58.3081
63.6026
69.1538
74.8825
80.7544
86.7598
92.9034
99.1973
105.658
112.302
119.147
126.208
133.499
141.031
148.812
156.846
165.136
173.68
182.473
191.509
200.777
210.264
219.956
229.835
239.883
250.079
260.4
270.825
281.33
291.889
302.48
313.076
323.653
334.186
344.652
355.025
365.284
375.404
385.364
395.141
404.716
414.067
423.174
432.019
440.581
448.842
456.785
464.389
471.639
478.514
484.999
491.075
496.725
501.933
506.681
510.954
514.736
518.012
520.771
523
524.69
525.833
526.426
526.466
525.953
524.89
523.282
521.137
518.466
515.282
511.601
507.434
502.798
497.732
492.291
486.519
480.461
474.161
467.66
460.989
454.176
447.238
440.185
433.011
425.701
418.224
410.541
402.605
394.37
385.779
376.79
367.388
357.57
347.363
336.8
325.976
315.155
304.368
293.626
283.303
273.56
264.431
256.007
248.302
241.284
234.879
228.997
223.533
218.383
213.451
208.649
203.908
199.172
194.401
189.567
184.655
179.66
174.584
169.439
164.243
159.016
153.781
148.563
143.386
138.271
133.237
128.302
123.48
118.783
114.22
109.797
105.521
101.394
97.4183
93.5937
89.92
86.3955
83.0179
79.7842
76.6912
73.7351
70.9117
68.217
65.6464
63.1956
60.8599
58.635
56.5163
54.4997
52.5807
50.7553
49.0194
47.3692
45.8011
44.3103
42.8926
41.5446
40.263
39.0449
37.8872
36.7873
35.7426
34.7508
33.8098
32.918
32.0741
31.2772
30.5273
29.8251
29.1725
28.5723
28.028
27.5399
27.1105
158.319
60.1663
46.7976
45.3916
47.5208
51.1829
55.6476
60.5807
65.8142
71.264
76.8921
82.6869
88.6518
94.7991
101.145
107.709
114.508
121.56
128.88
136.482
144.375
152.566
161.059
169.855
178.951
188.341
198.016
207.965
218.172
228.621
239.293
250.166
261.217
272.422
283.755
295.19
306.7
318.256
329.83
341.395
352.923
364.386
375.756
387.008
398.115
409.051
419.792
430.313
440.59
450.601
460.323
469.733
478.81
487.531
495.875
503.82
511.346
518.43
525.053
531.194
536.831
541.944
546.513
550.52
553.946
556.775
558.992
560.587
561.55
561.874
561.556
560.596
558.995
556.76
553.896
550.415
546.33
541.642
536.36
530.531
524.223
517.493
510.391
502.969
495.277
487.352
479.23
470.932
462.469
453.835
445.006
435.943
426.587
416.871
406.725
396.056
384.838
373.089
360.798
347.974
334.604
320.856
307.228
293.737
280.6
268.083
256.372
245.606
235.862
227.164
219.484
212.749
206.855
201.677
197.081
192.932
189.105
185.487
181.983
178.515
175.023
171.463
167.808
164.043
160.163
156.174
152.089
147.924
143.701
139.44
135.164
130.894
126.648
122.444
118.299
114.224
110.233
106.334
102.536
98.8431
95.2613
91.7936
88.442
85.2078
82.0912
79.0918
76.2085
73.4398
70.7836
68.2376
65.799
63.4651
61.2327
59.0989
57.0604
55.1141
53.2566
51.4849
49.7959
48.1849
46.6483
45.183
43.7862
42.455
41.1867
39.9786
38.8282
37.7332
36.6915
35.7013
34.7608
33.8691
33.0253
32.2294
31.4819
30.7844
30.1386
29.5468
29.0075
28.5226
156.408
59.7315
45.838
43.8783
45.4901
48.6782
52.7133
57.2588
62.1426
67.276
72.6168
78.1503
83.8779
89.8109
95.9653
102.36
109.014
115.946
123.173
130.709
138.568
146.758
155.286
164.154
173.362
182.906
192.779
202.972
213.47
224.259
235.32
246.631
258.17
269.912
281.83
293.897
306.083
318.359
330.696
343.061
355.424
367.756
380.024
392.199
404.252
416.153
427.874
439.387
450.665
461.681
472.409
482.824
492.899
502.611
511.931
520.835
529.299
537.298
544.809
551.806
558.266
564.163
569.473
574.173
578.24
581.654
584.395
586.447
587.797
588.435
588.353
587.55
586.023
583.778
580.82
577.159
572.805
567.754
561.995
555.6
548.642
541.182
533.276
524.98
516.345
507.414
498.233
488.829
479.212
469.373
459.284
448.892
438.126
426.891
415.086
402.567
389.356
375.525
361.041
345.943
330.341
314.467
298.57
282.894
267.709
253.265
239.773
227.402
216.258
206.391
197.797
190.42
184.163
178.9
174.486
170.768
167.592
164.817
162.311
159.964
157.682
155.392
153.036
150.578
147.991
145.266
142.399
139.399
136.277
133.049
129.735
126.353
122.923
119.464
115.994
112.53
109.087
105.677
102.313
99.0049
95.761
92.5886
89.4937
86.481
83.5542
80.7159
77.9681
75.3119
72.7477
70.2755
67.8946
65.6042
63.4028
61.2891
59.2611
57.3171
55.4547
53.6719
51.9644
50.3298
48.7658
47.2699
45.8399
44.4733
43.1679
41.9212
40.7313
39.596
38.5136
37.4823
36.5007
35.568
34.6835
33.847
33.0591
32.3209
31.6336
30.9983
30.4124
29.8779
151.921
59.1093
44.8335
42.371
43.4899
46.2101
49.809
53.9519
58.4649
63.2552
68.2763
73.5094
78.9529
84.6156
90.5124
96.6612
103.081
109.792
116.811
124.154
131.837
139.87
148.261
157.017
166.14
175.628
185.477
195.679
206.225
217.099
228.286
239.766
251.517
263.516
275.736
288.15
300.728
313.439
326.254
339.139
352.062
364.99
377.89
390.73
403.476
416.098
428.563
440.841
452.9
464.712
476.247
487.478
498.376
508.916
519.059
528.773
538.037
546.823
555.105
562.855
570.043
576.643
582.625
587.961
592.626
596.594
599.841
602.346
604.093
605.067
605.258
604.661
603.273
601.098
598.142
594.412
589.92
584.657
578.597
571.837
564.451
556.5
548.046
539.143
529.848
520.189
510.252
500.052
489.594
478.861
467.814
456.39
444.506
432.064
418.964
405.13
390.518
375.105
358.916
342.048
324.665
306.992
289.291
271.853
254.974
238.921
223.928
210.176
197.79
186.834
177.318
169.2
162.397
156.794
152.253
148.621
145.741
143.457
141.621
140.098
138.77
137.535
136.311
135.033
133.654
132.14
130.473
128.644
126.652
124.505
122.213
119.793
117.26
114.632
111.928
109.166
106.362
103.532
100.692
97.855
95.0325
92.2355
89.4736
86.7548
84.0861
81.4734
78.9216
76.4345
74.0154
71.6664
69.3893
67.1851
65.0545
62.9976
61.0143
59.1038
57.2649
55.4949
53.7929
52.1574
50.587
49.0801
47.6348
46.2494
44.9221
43.6511
42.4347
41.2712
40.159
39.0969
38.0836
37.1185
36.201
35.331
34.5091
33.736
33.0125
32.3389
31.7122
31.1344
144.868
58.2003
43.9162
41.0517
41.7205
43.9908
47.1565
50.8903
55.019
59.4475
64.1248
69.0276
74.1502
79.4977
85.0824
90.9205
97.0301
103.43
110.139
117.174
124.551
132.283
140.38
148.852
157.702
166.933
176.544
186.53
196.883
207.593
218.647
230.027
241.713
253.685
265.918
278.385
291.058
303.907
316.901
330.008
343.195
356.426
369.67
382.89
396.052
409.123
422.067
434.852
447.445
459.813
471.923
483.745
495.247
506.397
517.162
527.51
537.41
546.834
555.75
564.127
571.934
579.139
585.71
591.616
596.825
601.31
605.041
607.995
610.15
611.488
611.997
611.669
610.501
608.493
605.652
601.989
597.505
592.192
586.051
579.169
571.618
563.465
554.776
545.614
536.041
526.111
515.864
505.32
494.475
483.301
471.741
459.715
447.124
433.858
419.81
404.894
389.049
372.265
354.601
336.191
317.241
298.007
278.79
259.912
241.692
224.414
208.318
193.583
180.325
168.602
158.414
149.718
142.434
136.455
131.655
127.897
125.036
122.923
121.415
120.373
119.667
119.181
118.815
118.482
118.112
117.651
117.06
116.312
115.39
114.289
113.009
111.557
109.943
108.181
106.287
104.278
102.171
99.9831
97.7302
95.4281
93.0916
90.734
88.3678
86.004
83.6525
81.3222
79.0206
76.7545
74.5295
72.3503
70.2208
68.1442
66.123
64.1591
62.2536
60.4068
58.6184
56.8889
55.2183
53.6061
52.0519
50.5548
49.1139
47.728
46.3958
45.1163
43.8881
42.7099
41.5807
40.4995
39.4654
38.4778
37.5365
36.6415
35.7933
34.9924
34.2392
33.5338
32.8728
32.2583
135.143
56.7608
43.0123
39.9334
40.242
42.1122
44.873
48.2117
51.9605
56.024
60.3479
64.9044
69.6828
74.6839
79.9161
85.3927
91.1301
97.1458
103.458
110.084
117.041
124.342
132.003
140.031
148.437
157.225
166.396
175.951
185.886
196.193
206.863
217.882
229.235
240.902
252.863
265.094
277.568
290.258
303.133
316.163
329.315
342.555
355.849
369.162
382.457
395.701
408.856
421.889
434.763
447.444
459.897
472.089
483.985
495.552
506.756
517.561
527.937
537.848
547.263
556.146
564.465
572.183
579.267
585.682
591.394
596.371
600.582
603.999
606.599
608.361
609.271
609.318
608.499
606.813
604.269
600.881
596.632
591.523
585.593
578.914
571.555
563.584
555.066
546.064
536.636
526.827
516.664
506.154
495.275
483.98
472.192
459.808
446.708
432.768
417.872
401.932
384.899
366.792
347.708
327.831
307.418
286.782
266.273
246.251
227.051
208.967
192.227
176.989
163.342
151.312
140.871
131.953
124.464
118.293
113.322
109.424
106.476
104.35
102.92
102.064
101.661
101.597
101.768
102.076
102.438
102.784
103.055
103.208
103.209
103.036
102.678
102.128
101.39
100.469
99.3768
98.1253
96.7297
95.2058
93.5701
91.8385
90.0271
88.1508
86.2239
84.2598
82.2705
80.2674
78.2603
76.2584
74.2695
72.3006
70.3576
68.4457
66.5689
64.7303
62.9328
61.1786
59.47
57.8085
56.1952
54.6309
53.116
51.6505
50.2343
48.8669
47.5479
46.2766
45.0523
43.8742
42.7417
41.6541
40.6111
39.6122
38.6574
37.7469
36.8811
36.0605
35.2855
34.5556
33.8675
33.2237
122.119
54.436
41.9198
38.8989
38.9853
40.5371
42.9443
45.9204
49.3087
53.0168
56.9891
61.1935
65.6144
70.2476
75.0968
80.1715
85.4851
91.0531
96.8925
103.021
109.454
116.21
123.302
130.744
138.546
146.717
155.264
164.189
173.492
183.172
193.223
203.636
214.399
225.499
236.917
248.635
260.628
272.874
285.343
298.008
310.837
323.799
336.859
349.984
363.138
376.285
389.389
402.414
415.324
428.081
440.651
452.998
465.084
476.876
488.338
499.434
510.128
520.385
530.17
539.446
548.178
556.327
563.857
570.732
576.915
582.372
587.071
590.981
594.078
596.34
597.751
598.3
597.983
596.802
594.765
591.886
588.148
583.557
578.18
572.075
565.303
557.925
550.001
541.586
532.725
523.448
513.762
503.65
493.063
481.925
470.128
457.54
444.02
429.426
413.642
396.591
378.261
358.721
338.135
316.757
294.92
273.006
251.417
230.545
210.738
192.276
175.36
160.108
146.562
134.701
124.455
115.722
108.383
102.313
97.3881
93.4895
90.5058
88.3318
86.8665
86.0117
85.6705
85.7471
86.1478
86.7824
87.5663
88.4223
89.2825
90.0892
90.7954
91.3646
91.7702
91.9948
92.0286
91.8686
91.5173
90.9815
90.2712
89.3987
88.3781
87.2241
85.9522
84.5774
83.1148
81.5787
79.9827
78.3395
76.6608
74.9574
73.2392
71.5147
69.7916
68.0758
66.3731
64.6894
63.0294
61.3974
59.7965
58.2298
56.6993
55.207
53.7542
52.3419
50.9708
49.6412
48.3534
47.1073
45.9029
44.7399
43.6182
42.5375
41.4978
40.4991
39.5415
38.6254
37.7513
36.9197
36.1309
35.3843
34.6768
34.0113
108.098
51.4276
40.633
37.9692
38.0446
39.4443
41.6358
44.3657
47.4928
50.9305
54.624
58.5389
62.6557
66.9658
71.4687
76.17
81.0798
86.2113
91.5798
97.2017
103.094
109.274
115.757
122.558
129.692
137.169
144.998
153.189
161.743
170.664
179.951
189.6
199.603
209.951
220.632
231.629
242.925
254.498
266.326
278.382
290.639
303.066
315.633
328.307
341.053
353.838
366.624
379.377
392.058
404.633
417.064
429.314
441.348
453.128
464.617
475.78
486.58
496.979
506.941
516.428
525.402
533.825
541.658
548.864
555.406
561.248
566.358
570.707
574.268
577.022
578.952
580.051
580.315
579.751
578.371
576.176
573.161
569.377
564.864
559.668
553.839
547.424
540.469
533.01
525.068
516.644
507.713
498.221
488.081
477.172
465.35
452.452
438.315
422.797
405.797
387.285
367.317
346.054
323.76
300.792
277.574
254.562
232.204
210.903
190.992
172.711
156.203
141.524
128.651
117.503
107.961
99.8851
93.1285
87.5487
83.0141
79.407
76.6238
74.5737
73.1753
72.3535
72.0361
72.1513
72.6268
73.3894
74.366
75.4858
76.6814
77.8917
79.0625
80.1482
81.1118
81.9247
82.5668
83.0253
83.2939
83.3718
83.2626
82.9737
82.5148
81.898
81.1364
80.2438
79.2345
78.1226
76.9219
75.6458
74.3067
72.9164
71.4858
70.0247
68.5404
67.0411
65.5358
64.0312
62.5334
61.0476
59.5784
58.1297
56.7048
55.3065
53.9372
52.5987
51.2925
50.0197
48.7813
47.5778
46.4099
45.2778
44.1818
43.1222
42.0992
41.1134
40.1649
39.2546
38.3828
37.5502
36.7571
36.0029
35.2849
34.6063
94.0836
47.8155
39.0376
36.9974
37.2853
38.7283
40.8782
43.5179
46.5236
49.8162
53.3433
57.0706
60.9767
65.0504
69.2885
73.6936
78.2733
83.0386
88.0032
93.1826
98.5935
104.253
110.178
116.385
122.889
129.705
136.844
144.316
152.13
160.291
168.803
177.664
186.874
196.426
206.312
216.521
227.039
237.849
248.931
260.264
271.823
283.582
295.512
307.582
319.76
332.014
344.309
356.609
368.88
381.085
393.187
405.151
416.939
428.514
439.841
450.881
461.599
471.957
481.917
491.44
500.49
509.026
517.01
524.406
531.176
537.286
542.704
547.403
551.359
554.555
556.977
558.622
559.489
559.59
558.942
557.531
555.365
552.517
549.012
544.88
540.154
534.86
529.02
522.639
515.705
508.18
499.995
491.047
481.202
470.297
458.15
444.578