/*--------------------------------*- C++ -*----------------------------------*\
| =========                 |                                                 |
| \\      /  F ield         | OpenFOAM: The Open Source CFD Toolbox           |
|  \\    /   O peration     | Version:  plus                                  |
|   \\  /    A nd           | Website:  www.openfoam.com                      |
|    \\/     M anipulation  |                                                 |
\*---------------------------------------------------------------------------*/
FoamFile
{
    version     2.0;
    format      ascii;
    class       volScalarField;
    location    "50";
    object      k;
}
// * * * * * * * * * * * * * * * * * * * * * * * * * * * * * * * * * * * * * //

dimensions      [0 2 -2 0 0 0 0];


internalField   nonuniform List<scalar> 
12225
(
0.753313
1.08436
1.31548
1.46343
1.55181
1.60003
1.62206
1.62743
1.62246
1.61123
1.59636
1.57952
1.56174
1.54362
1.52552
1.50758
1.48963
1.47296
0.466915
0.491397
0.499161
0.501802
0.50142
0.499115
0.495858
0.492371
0.489132
0.486424
0.484401
0.483131
0.482632
0.482901
0.483944
0.485862
0.489425
0.494832
0.399879
0.409138
0.407489
0.401127
0.392598
0.383102
0.373333
0.363726
0.354555
0.345989
0.338123
0.331006
0.324651
0.319056
0.314219
0.310153
0.306923
0.304494
0.379611
0.381721
0.38097
0.378126
0.373851
0.368648
0.362886
0.356832
0.350678
0.344559
0.338571
0.332781
0.327234
0.321959
0.316976
0.312297
0.307926
0.303892
0.374796
0.374406
0.373193
0.371167
0.368479
0.365289
0.36174
0.357951
0.35402
0.350019
0.346009
0.342031
0.338118
0.334296
0.33058
0.326982
0.323508
0.320188
0.373413
0.371969
0.370393
0.36855
0.366434
0.36408
0.361539
0.35886
0.356089
0.353264
0.350414
0.347567
0.344741
0.341952
0.339213
0.336532
0.333914
0.331388
0.372995
0.371094
0.369267
0.367416
0.365498
0.363503
0.361438
0.359315
0.357152
0.354966
0.352772
0.350583
0.34841
0.346264
0.344151
0.342078
0.340049
0.33809
0.372869
0.370781
0.368811
0.366911
0.365047
0.363197
0.361352
0.359509
0.357668
0.355836
0.354016
0.352214
0.350436
0.348686
0.346969
0.345288
0.343646
0.342067
0.37283
0.370672
0.368633
0.366694
0.364832
0.363033
0.361283
0.359573
0.357899
0.356258
0.35465
0.353075
0.351534
0.350028
0.348559
0.347128
0.345739
0.344409
0.372816
0.370633
0.368566
0.366604
0.364734
0.362947
0.361232
0.359581
0.357986
0.356443
0.354949
0.353501
0.352098
0.350738
0.349421
0.348147
0.346918
0.345749
0.37281
0.370618
0.368539
0.366566
0.36469
0.362903
0.361199
0.359569
0.358009
0.356511
0.355074
0.353692
0.352363
0.351085
0.349856
0.348675
0.347544
0.346473
0.372807
0.370611
0.368528
0.36655
0.36467
0.362882
0.36118
0.359557
0.358008
0.356528
0.355113
0.35376
0.352465
0.351226
0.35004
0.348906
0.347825
0.346806
0.372804
0.370606
0.368521
0.366541
0.364659
0.36287
0.361167
0.359546
0.358002
0.35653
0.355126
0.353786
0.352508
0.351289
0.350126
0.349018
0.347965
0.346975
0.372802
0.370603
0.368516
0.366534
0.364651
0.362861
0.361159
0.359538
0.357996
0.356527
0.355128
0.353795
0.352525
0.351316
0.350165
0.349071
0.348032
0.347059
0.3728
0.370599
0.368511
0.366529
0.364645
0.362855
0.361153
0.359533
0.357992
0.356525
0.355128
0.353799
0.352534
0.35133
0.350185
0.349097
0.348065
0.347099
0.372798
0.370597
0.368508
0.366525
0.364641
0.362851
0.361149
0.359531
0.357991
0.356526
0.355132
0.353805
0.352543
0.351343
0.350202
0.349118
0.34809
0.347126
0.372796
0.370594
0.368505
0.366521
0.364638
0.362848
0.361147
0.35953
0.357993
0.35653
0.355139
0.353815
0.352557
0.35136
0.350222
0.349141
0.348116
0.347155
0.372795
0.370592
0.368503
0.366519
0.364636
0.362847
0.361148
0.359533
0.357997
0.356538
0.35515
0.35383
0.352575
0.351382
0.350248
0.349171
0.348148
0.34719
0.372794
0.370591
0.368501
0.366518
0.364636
0.362849
0.361152
0.359539
0.358007
0.356551
0.355166
0.35385
0.3526
0.351411
0.350281
0.349207
0.348188
0.347232
0.372794
0.370591
0.368502
0.36652
0.36464
0.362855
0.36116
0.35955
0.358021
0.356568
0.355188
0.353876
0.352629
0.351443
0.350317
0.349246
0.34823
0.347277
0.372794
0.370592
0.368505
0.366525
0.364646
0.362864
0.361172
0.359565
0.358039
0.356589
0.355212
0.353903
0.352659
0.351477
0.350353
0.349285
0.34827
0.347318
0.372796
0.370595
0.36851
0.366533
0.364659
0.362881
0.361193
0.359591
0.35807
0.356624
0.35525
0.353944
0.352701
0.351518
0.350393
0.349322
0.348303
0.347345
0.372798
0.370603
0.368526
0.36656
0.364698
0.362932
0.361257
0.359665
0.35815
0.356707
0.355331
0.354017
0.352761
0.351561
0.350413
0.349315
0.348265
0.347273
0.372809
0.37064
0.368602
0.366682
0.364864
0.363136
0.361485
0.359902
0.35838
0.356913
0.355495
0.354125
0.3528
0.351519
0.350279
0.349082
0.347926
0.346823
0.372877
0.370847
0.368979
0.367216
0.365515
0.363848
0.362199
0.360562
0.358935
0.357319
0.35572
0.35414
0.352585
0.351058
0.349563
0.348103
0.346681
0.345313
0.373294
0.371887
0.370556
0.369147
0.367596
0.365891
0.364049
0.362095
0.36006
0.357971
0.355854
0.353729
0.351612
0.349518
0.347457
0.345437
0.343467
0.341566
0.375595
0.37641
0.376347
0.37532
0.373497
0.37109
0.36828
0.365205
0.361966
0.358638
0.355275
0.351919
0.3486
0.345343
0.342165
0.339079
0.336093
0.33323
0.388399
0.396033
0.396935
0.39444
0.390277
0.385244
0.379757
0.374055
0.368288
0.362558
0.356937
0.351476
0.346213
0.341172
0.336369
0.331811
0.327499
0.323441
0.431708
0.445013
0.447848
0.447703
0.446543
0.444812
0.442703
0.440347
0.43785
0.435296
0.432755
0.430284
0.427925
0.425709
0.423654
0.421768
0.42003
0.418387
0.569274
0.752534
0.89984
1.01432
1.11197
1.193
1.25853
1.31025
1.35006
1.37987
1.40143
1.4163
1.42584
1.43116
1.43318
1.43267
1.43025
1.42636
0.0212931
0.0295625
0.0418522
0.0607244
0.0804077
0.10078
0.121623
0.142868
0.164461
0.186158
0.207882
0.229583
0.251217
0.27275
0.294148
0.315383
0.336432
0.357273
0.377887
0.398259
0.418374
0.438221
0.457791
0.477074
0.496065
0.514758
0.53315
0.551237
0.569018
0.586493
0.60366
0.620523
0.637081
0.653337
0.669296
0.684958
0.70033
0.715415
0.730218
0.744744
0.758999
0.772988
0.786718
0.800194
0.813422
0.82641
0.839164
0.85169
0.863995
0.876087
0.88797
0.899653
0.911141
0.92244
0.933556
0.944494
0.955259
0.965856
0.976287
0.986556
0.996664
1.00661
1.01641
1.02604
1.03552
1.04483
1.05399
1.06299
1.07182
1.08049
1.08899
1.09733
1.1055
1.11351
1.12137
1.12907
1.13662
1.14406
1.15138
1.15859
1.16541
1.17181
1.17776
1.18322
1.18817
1.19257
1.19637
1.19953
1.20202
1.20377
1.20474
1.20487
1.20412
1.20242
1.19972
1.19595
1.19106
1.18499
1.17768
1.16908
1.15916
1.14786
1.13516
1.12103
1.10548
1.08849
1.0701
1.05033
1.02923
1.00687
0.9833
0.958623
0.932931
0.906331
0.878953
0.850896
0.822163
0.792748
0.763371
0.735288
0.707608
0.679441
0.656319
0.637228
0.619
0.601246
0.583931
0.567079
0.550713
0.534853
0.519511
0.504693
0.490403
0.476637
0.463393
0.450662
0.438435
0.426701
0.415448
0.404662
0.394329
0.384435
0.374964
0.365901
0.357232
0.348942
0.341017
0.333442
0.326204
0.319289
0.312684
0.306377
0.300357
0.294612
0.289131
0.283905
0.278922
0.274174
0.269651
0.265346
0.261251
0.257365
0.253686
0.250197
0.246889
0.24375
0.240771
0.237945
0.235264
0.232717
0.230296
0.227989
0.225782
0.223654
0.221579
0.219517
0.217404
0.215126
0.212474
0.208549
0.0480934
0.0974613
0.126116
0.153518
0.183487
0.215531
0.248565
0.281901
0.315193
0.348266
0.381042
0.413482
0.445559
0.477255
0.508555
0.539448
0.569923
0.599969
0.629574
0.658726
0.687414
0.715626
0.743349
0.77057
0.797275
0.823454
0.849094
0.874186
0.898719
0.922684
0.946074
0.968884
0.991111
1.01275
1.0338
1.05427
1.07415
1.09345
1.11218
1.13035
1.14795
1.16502
1.18155
1.19756
1.21307
1.2281
1.24266
1.25678
1.27048
1.28378
1.2967
1.30929
1.32155
1.33353
1.34526
1.35676
1.36807
1.37923
1.39027
1.40122
1.41212
1.42301
1.43391
1.44487
1.45592
1.4671
1.47843
1.48996
1.5017
1.5137
1.52599
1.53859
1.55153
1.56485
1.57857
1.59271
1.60731
1.62239
1.63799
1.65377
1.66982
1.68612
1.70266
1.71941
1.73632
1.75334
1.77043
1.7875
1.80448
1.82126
1.83775
1.85382
1.86934
1.88414
1.89806
1.91093
1.92256
1.93273
1.94126
1.94793
1.95252
1.95485
1.95471
1.95193
1.94635
1.93784
1.92629
1.91163
1.89382
1.87287
1.84879
1.82165
1.79156
1.75862
1.723
1.68485
1.64434
1.60157
1.55561
1.50689
1.45706
1.40628
1.35642
1.30784
1.2604
1.21423
1.16946
1.12619
1.08447
1.04434
1.0058
0.968844
0.933456
0.899602
0.867245
0.836345
0.806853
0.778723
0.751904
0.726346
0.701999
0.678811
0.656735
0.635721
0.615722
0.596693
0.578591
0.561373
0.544999
0.529429
0.514628
0.500559
0.487189
0.474486
0.46242
0.45096
0.44008
0.429753
0.419954
0.410659
0.401843
0.393473
0.385528
0.378004
0.37088
0.364135
0.357751
0.351708
0.345988
0.340573
0.335445
0.330584
0.325971
0.321584
0.317399
0.313394
0.309551
0.3059
0.302669
0.300653
0.0838815
0.158766
0.202882
0.24109
0.279764
0.320337
0.362357
0.405129
0.448173
0.491212
0.53409
0.576714
0.619024
0.660979
0.702549
0.743711
0.784443
0.824725
0.864536
0.903854
0.942655
0.980916
1.01861
1.05571
1.09219
1.12803
1.16319
1.19765
1.23139
1.26438
1.29661
1.32804
1.35867
1.38848
1.41745
1.44558
1.47286
1.49928
1.52484
1.54953
1.57337
1.59634
1.61846
1.63973
1.66017
1.67978
1.69857
1.71658
1.7338
1.75027
1.766
1.78101
1.79535
1.80903
1.82208
1.83455
1.84646
1.85786
1.86879
1.87929
1.88941
1.8992
1.9087
1.91796
1.92705
1.93601
1.94489
1.95376
1.96267
1.97167
1.98082
1.99017
1.99979
2.00971
2.02
2.0307
2.04184
2.05346
2.06562
2.07812
2.09105
2.10443
2.11825
2.13252
2.14722
2.16232
2.17779
2.19357
2.20959
2.22576
2.24198
2.25812
2.27403
2.28953
2.30443
2.31851
2.33154
2.34327
2.35345
2.36178
2.36801
2.37184
2.37303
2.3713
2.36642
2.35819
2.34642
2.33097
2.31172
2.28862
2.26162
2.23075
2.19605
2.15755
2.11533
2.06938
2.01979
1.96594
1.90735
1.84824
1.78954
1.73186
1.67539
1.61977
1.56487
1.51083
1.45787
1.40621
1.35599
1.30736
1.26039
1.21514
1.17161
1.12983
1.08977
1.05141
1.0147
0.979615
0.946096
0.914095
0.883557
0.854427
0.82665
0.800171
0.774937
0.750894
0.727991
0.706177
0.685406
0.66563
0.646806
0.628889
0.611841
0.595621
0.580192
0.565519
0.551568
0.538306
0.525702
0.513727
0.502352
0.491549
0.481285
0.471537
0.462291
0.453519
0.445199
0.437307
0.429821
0.422722
0.415988
0.409599
0.403538
0.397788
0.392335
0.38718
0.382352
0.377963
0.374333
0.372296
0.115176
0.212797
0.27086
0.318678
0.364671
0.411688
0.460131
0.509617
0.559717
0.610112
0.660594
0.711023
0.761308
0.81138
0.861192
0.910702
0.959876
1.00868
1.05708
1.10505
1.15254
1.19952
1.24594
1.29177
1.33697
1.38148
1.42527
1.46829
1.5105
1.55185
1.59232
1.63186
1.67044
1.70802
1.74459
1.78011
1.81456
1.84792
1.88017
1.91131
1.94131
1.97017
1.99788
2.02444
2.04985
2.07411
2.09722
2.11918
2.14001
2.15971
2.1783
2.19578
2.21219
2.22754
2.24184
2.25514
2.26746
2.27883
2.28929
2.29889
2.30766
2.31566
2.32295
2.32957
2.33559
2.34107
2.34609
2.35071
2.35501
2.35906
2.36295
2.36676
2.37056
2.37443
2.37846
2.38273
2.3873
2.39226
2.39766
2.40343
2.40962
2.41628
2.42343
2.4311
2.43931
2.44806
2.45734
2.46713
2.47739
2.48804
2.49901
2.51019
2.52145
2.53263
2.54357
2.55405
2.56386
2.57276
2.5805
2.58681
2.59142
2.59404
2.59439
2.5922
2.5872
2.57914
2.56776
2.55287
2.53425
2.51175
2.48523
2.45457
2.41969
2.3805
2.33689
2.2883
2.23496
2.17769
2.11872
2.05927
1.99999
1.94115
1.88279
1.82479
1.76714
1.71
1.65362
1.59824
1.54407
1.49129
1.44003
1.39039
1.34243
1.2962
1.2517
1.20893
1.16788
1.12853
1.09083
1.05475
1.02023
0.987239
0.955713
0.925603
0.896855
0.869417
0.843237
0.818264
0.794448
0.77174
0.750094
0.729463
0.709805
0.691078
0.67324
0.656253
0.64008
0.624685
0.610035
0.596096
0.582837
0.570227
0.558237
0.546836
0.536002
0.525707
0.515926
0.506632
0.497803
0.489417
0.481453
0.473892
0.466718
0.459919
0.453493
0.447458
0.44187
0.436873
0.432761
0.430142
0.143218
0.256983
0.326643
0.382814
0.435238
0.487599
0.540995
0.595456
0.650725
0.706538
0.762688
0.819028
0.875453
0.931884
0.988263
1.04454
1.10068
1.15663
1.21235
1.2678
1.32293
1.37768
1.43201
1.48584
1.53913
1.59181
1.64381
1.69507
1.74553
1.79513
1.8438
1.89149
1.93814
1.98371
2.02813
2.07137
2.11339
2.15414
2.1936
2.23172
2.26849
2.30387
2.33785
2.37041
2.40152
2.43119
2.45938
2.48611
2.51135
2.53511
2.55739
2.57818
2.59749
2.61533
2.6317
2.64662
2.6601
2.67217
2.68285
2.69217
2.70017
2.70688
2.71236
2.71665
2.71981
2.72191
2.72301
2.7232
2.72256
2.72117
2.71912
2.71652
2.71346
2.71006
2.70641
2.70264
2.69883
2.69512
2.69158
2.68824
2.68513
2.68231
2.67985
2.67781
2.67625
2.6752
2.67469
2.67473
2.67531
2.67642
2.67801
2.68001
2.68234
2.6849
2.68755
2.69016
2.69256
2.69459
2.69606
2.69677
2.69652
2.69509
2.69223
2.68773
2.68133
2.67276
2.66176
2.64803
2.6313
2.61126
2.58761
2.56005
2.52825
2.49202
2.45064
2.40378
2.35391
2.30154
2.24756
2.19258
2.13702
2.08108
2.02482
1.96826
1.9115
1.85475
1.79826
1.74232
1.68718
1.63306
1.58014
1.52856
1.47845
1.42987
1.38289
1.33754
1.29383
1.25175
1.21131
1.17247
1.1352
1.09947
1.06525
1.03248
1.00112
0.97112
0.942441
0.915031
0.888843
0.863831
0.839948
0.817149
0.795392
0.774633
0.754831
0.735948
0.717943
0.700781
0.684426
0.668844
0.654001
0.639867
0.62641
0.613602
0.60141
0.589805
0.578762
0.568253
0.558256
0.548747
0.539707
0.531118
0.522966
0.515246
0.507963
0.501147
0.494871
0.489277
0.484603
0.481268
0.166945
0.290926
0.369348
0.432176
0.489936
0.546695
0.60399
0.662205
0.721296
0.781103
0.841472
0.902275
0.96342
1.02483
1.08646
1.14826
1.21019
1.27219
1.33423
1.39625
1.45819
1.51999
1.58158
1.64289
1.70384
1.76434
1.82432
1.88367
1.94233
2.0002
2.05719
2.11323
2.16823
2.22211
2.27482
2.32626
2.37639
2.42514
2.47245
2.51827
2.56256
2.60526
2.64634
2.68577
2.7235
2.75951
2.79376
2.82625
2.85693
2.88579
2.91282
2.938
2.96131
2.98274
3.00229
3.01995
3.03572
3.0496
3.0616
3.07173
3.08001
3.08646
3.09111
3.094
3.09517
3.09467
3.09257
3.08892
3.08382
3.07733
3.06956
3.06061
3.05059
3.0396
3.02779
3.01528
3.00219
2.98869
2.97488
2.96086
2.94667
2.9324
2.91815
2.90403
2.89012
2.8765
2.86325
2.8504
2.838
2.82607
2.81461
2.80361
2.79305
2.78289
2.77307
2.76354
2.75423
2.74507
2.73602
2.727
2.71795
2.70877
2.69938
2.68966
2.67944
2.66853
2.65667
2.64351
2.62873
2.61184
2.59235
2.56977
2.54322
2.51235
2.47722
2.43892
2.39799
2.35478
2.30961
2.2628
2.21458
2.1651
2.11444
2.06271
2.01008
1.95678
1.90311
1.84937
1.79585
1.74281
1.6905
1.63911
1.5888
1.53969
1.4919
1.44549
1.40052
1.35702
1.31501
1.2745
1.23548
1.19794
1.16185
1.12719
1.09392
1.06201
1.03143
1.00213
0.974073
0.947218
0.921524
0.89695
0.873454
0.850998
0.829541
0.809045
0.789473
0.770787
0.752953
0.735937
0.719704
0.704224
0.689467
0.675402
0.661991
0.649204
0.637016
0.6254
0.614334
0.603796
0.593765
0.584227
0.575172
0.566597
0.558517
0.550967
0.544023
0.537818
0.532525
0.528433
0.185996
0.315132
0.399541
0.467171
0.52897
0.589119
0.649371
0.710354
0.772212
0.834909
0.898358
0.962478
1.0272
1.09248
1.15826
1.22452
1.29122
1.35832
1.42577
1.49352
1.5615
1.62965
1.69788
1.76611
1.83424
1.90217
1.9698
2.03701
2.1037
2.16975
2.23506
2.29951
2.363
2.42542
2.48668
2.54667
2.60532
2.66252
2.7182
2.77229
2.82471
2.8754
2.9243
2.97134
3.01648
3.05966
3.10084
3.13998
3.17704
3.21197
3.24475
3.27534
3.3037
3.32982
3.35366
3.3752
3.39442
3.4113
3.42582
3.43798
3.44778
3.4552
3.46027
3.46299
3.46338
3.46149
3.45734
3.45098
3.44248
3.43191
3.41934
3.40487
3.38859
3.37062
3.35108
3.33011
3.30785
3.28446
3.26007
3.23485
3.20886
3.18224
3.1551
3.1276
3.09985
3.07198
3.04408
3.01624
2.98854
2.96104
2.93379
2.90681
2.88015
2.85383
2.82787
2.80231
2.77719
2.75258
2.72859
2.70534
2.68298
2.66163
2.64144
2.6225
2.60484
2.58843
2.57313
2.55857
2.54444
2.5301
2.51469
2.4974
2.47756
2.45565
2.4314
2.40489
2.37609
2.34497
2.31155
2.2759
2.23807
2.19813
2.15618
2.11232
2.06675
2.01973
1.97157
1.9226
1.87313
1.82347
1.77392
1.72471
1.67605
1.62815
1.58113
1.53514
1.49027
1.44659
1.40416
1.36302
1.3232
1.28472
1.24756
1.21174
1.17723
1.14403
1.11209
1.08141
1.05195
1.02368
0.996564
0.97057
0.945664
0.921809
0.89897
0.877113
0.856202
0.836204
0.817085
0.798813
0.781354
0.764681
0.748766
0.733562
0.719039
0.705171
0.69193
0.679293
0.667235
0.655737
0.644781
0.634354
0.624447
0.615065
0.606224
0.597966
0.590363
0.583527
0.577574
0.57271
0.200376
0.330522
0.418481
0.48915
0.553638
0.616106
0.678378
0.741224
0.804928
0.869561
0.935114
1.00156
1.06886
1.13699
1.20594
1.27568
1.3462
1.41745
1.4894
1.56201
1.6352
1.7089
1.78303
1.85749
1.93217
2.00695
2.08171
2.15633
2.23066
2.30458
2.37794
2.45061
2.52246
2.59335
2.66316
2.73176
2.79903
2.86487
2.92915
2.99179
3.05268
3.11174
3.16888
3.22402
3.27708
3.328
3.37671
3.42316
3.46727
3.50899
3.54828
3.58508
3.61934
3.65101
3.68006
3.70643
3.73009
3.751
3.76913
3.78443
3.79689
3.80648
3.81318
3.81698
3.81789
3.8159
3.81103
3.8033
3.79276
3.77944
3.7634
3.74472
3.72347
3.69975
3.67365
3.64531
3.61485
3.58243
3.54817
3.51228
3.47489
3.43615
3.39624
3.35532
3.31354
3.27106
3.228
3.18447
3.14058
3.09641
3.05202
3.00748
2.96284
2.91819
2.8736
2.82919
2.78509
2.74151
2.69872
2.65707
2.61696
2.57884
2.54318
2.5104
2.48078
2.45469
2.43224
2.41298
2.39669
2.38244
2.36963
2.35792
2.34663
2.33525
2.32316
2.30982
2.29474
2.27753
2.25789
2.23562
2.2106
2.18278
2.15215
2.1188
2.08292
2.04474
2.00457
1.96274
1.9196
1.8755
1.83075
1.78565
1.74048
1.69545
1.65079
1.60668
1.56324
1.52063
1.47892
1.43822
1.39857
1.36002
1.32262
1.28638
1.25131
1.21743
1.18472
1.15317
1.12279
1.09353
1.06539
1.03834
1.01236
0.987405
0.963463
0.940498
0.918483
0.897385
0.877177
0.857828
0.839309
0.821596
0.804647
0.788424
0.772899
0.758048
0.743846
0.730269
0.717296
0.704907
0.693088
0.681827
0.67112
0.660973
0.651406
0.642462
0.634205
0.626725
0.620091
0.614454
0.210274
0.338218
0.427724
0.499901
0.565805
0.629531
0.692893
0.756731
0.821417
0.88711
0.953868
1.02171
1.09065
1.16069
1.23183
1.30408
1.37744
1.45187
1.52736
1.60385
1.68131
1.75964
1.83876
1.91857
1.99896
2.07978
2.16092
2.24221
2.32351
2.40466
2.48551
2.56588
2.64562
2.72457
2.80257
2.87948
2.95514
3.02942
3.10218
3.17328
3.24262
3.31007
3.37553
3.43888
3.50004
3.55892
3.61542
3.66947
3.72098
3.76989
3.81612
3.85961
3.90028
3.93808
3.97294
4.0048
4.03361
4.0593
4.08182
4.10112
4.11714
4.12984
4.13919
4.14513
4.14766
4.14673
4.14236
4.13452
4.12324
4.10853
4.09042
4.06897
4.04421
4.01623
3.98508
3.95088
3.91374
3.87374
3.83102
3.78579
3.73825
3.68859
3.63703
3.58374
3.52892
3.47273
3.41533
3.35682
3.29733
3.23693
3.17569
3.11365
3.05087
2.98743
2.92343
2.85902
2.79442
2.72993
2.66597
2.60308
2.54191
2.48326
2.42818
2.37741
2.3314
2.2912
2.25699
2.22845
2.20615
2.18948
2.17783
2.1704
2.16625
2.16432
2.16358
2.16301
2.16172
2.15893
2.15398
2.14638
2.13575
2.12184
2.10453
2.0838
2.05975
2.03258
2.00256
1.97001
1.93529
1.89873
1.86071
1.82156
1.78159
1.74109
1.70032
1.65951
1.61886
1.57855
1.53872
1.49951
1.46101
1.42332
1.3865
1.35061
1.31569
1.28178
1.24888
1.21702
1.18621
1.15643
1.12769
1.09996
1.07325
1.04753
1.02278
0.998979
0.976108
0.954141
0.933054
0.912823
0.893425
0.874823
0.856977
0.839863
0.823455
0.807731
0.792667
0.778243
0.764439
0.751237
0.738624
0.726593
0.715141
0.704277
0.694024
0.684419
0.675522
0.667398
0.66008
0.653685
0.215974
0.339418
0.428937
0.501391
0.567614
0.631621
0.695193
0.759192
0.824045
0.889969
0.95708
1.02545
1.09511
1.16612
1.23849
1.31226
1.38743
1.46401
1.54198
1.6213
1.70194
1.78382
1.86685
1.95094
2.03596
2.12178
2.20825
2.29522
2.38251
2.46995
2.55736
2.64456
2.73137
2.8176
2.90307
2.98761
3.07103
3.15318
3.23388
3.31299
3.39036
3.46584
3.53931
3.61062
3.67968
3.74635
3.81053
3.87213
3.93104
3.98717
4.04043
4.09073
4.138
4.18216
4.22311
4.26078
4.29511
4.326
4.3534
4.37722
4.3974
4.41387
4.42656
4.43541
4.44038
4.44142
4.43849
4.43157
4.42064
4.40569
4.38674
4.3638
4.33691
4.3061
4.27142
4.23293
4.19072
4.14483
4.09534
4.04247
3.98649
3.92764
3.86615
3.80224
3.7361
3.66793
3.59789
3.52609
3.45266
3.37765
3.3011
3.22301
3.1434
3.06229
2.97976
2.89593
2.8111
2.72573
2.6403
2.55548
2.47201
2.39103
2.31449
2.24302
2.17713
2.11912
2.06987
2.0295
1.99826
1.9759
1.96181
1.95507
1.95452
1.95887
1.96676
1.9768
1.98771
1.99832
2.0076
2.01468
2.01889
2.01973
2.01685
2.01008
1.99938
1.98485
1.96668
1.94514
1.92057
1.8933
1.86371
1.83216
1.79899
1.76454
1.7291
1.69298
1.6564
1.61961
1.58279
1.54613
1.50977
1.47384
1.43845
1.40369
1.36964
1.33637
1.3039
1.2723
1.24158
1.21176
1.18285
1.15487
1.1278
1.10165
1.07641
1.05207
1.02862
1.00603
0.984296
0.963399
0.943302
0.923971
0.905387
0.887527
0.870371
0.853899
0.83809
0.822925
0.808387
0.794462
0.781139
0.768412
0.756283
0.744761
0.733869
0.723642
0.714129
0.705378
0.697392
0.690269
0.217787
0.335306
0.423765
0.495604
0.561285
0.624755
0.687761
0.751169
0.815439
0.880828
0.947495
1.01555
1.08507
1.15612
1.22876
1.30304
1.37899
1.45662
1.53595
1.61694
1.69957
1.78378
1.86948
1.95658
2.04496
2.13449
2.22501
2.31636
2.40837
2.50084
2.5936
2.68642
2.77913
2.8715
2.96334
3.05445
3.14464
3.2337
3.32145
3.40772
3.49232
3.5751
3.65589
3.73454
3.81092
3.88487
3.95628
4.02503
4.09098
4.15404
4.21409
4.27103
4.32477
4.37519
4.4222
4.46572
4.50563
4.54187
4.57433
4.60292
4.62756
4.64815
4.66462
4.67688
4.68485
4.68847
4.68768
4.68243
4.67268
4.6584
4.63959
4.61624
4.58835
4.55594
4.51905
4.4777
4.43193
4.38175
4.32716
4.26839
4.20579
4.13963
4.07013
3.99753
3.92205
3.84388
3.76321
3.68016
3.59483
3.50728
3.41749
3.32544
3.23106
3.13427
3.03505
2.93339
2.8298
2.72505
2.61964
2.51418
2.40914
2.30614
2.20865
2.11709
2.03289
1.95767
1.89261
1.83847
1.79564
1.7641
1.74346
1.73292
1.73141
1.73757
1.74991
1.76683
1.78674
1.80812
1.82958
1.84989
1.86804
1.88319
1.89474
1.90228
1.90556
1.90454
1.89927
1.88993
1.87678
1.86014
1.84035
1.81776
1.79276
1.76569
1.73689
1.70669
1.67538
1.64324
1.6105
1.5774
1.54413
1.51085
1.47773
1.44488
1.41243
1.38046
1.34905
1.31828
1.28818
1.25882
1.23021
1.20239
1.17537
1.14916
1.12377
1.0992
1.07545
1.05252
1.03039
1.00903
0.988425
0.968557
0.949411
0.930972
0.913222
0.896144
0.879723
0.863941
0.848784
0.834242
0.820306
0.806973
0.794246
0.782137
0.770667
0.759869
0.749781
0.740436
0.731817
0.724009
0.216027
0.326986
0.413761
0.484452
0.549022
0.611354
0.673183
0.735382
0.798433
0.862622
0.928141
0.995127
1.06369
1.13393
1.20591
1.27972
1.3554
1.43299
1.5125
1.59394
1.67728
1.76248
1.84948
1.93818
2.02847
2.12022
2.21329
2.30752
2.40272
2.4987
2.59527
2.69221
2.78932
2.88638
2.98316
3.07946
3.17505
3.26972
3.36327
3.45549
3.54619
3.63518
3.72227
3.8073
3.89009
3.9705
4.04836
4.12353
4.19588
4.26528
4.3316
4.39471
4.45451
4.51087
4.56366
4.61278
4.65813
4.69959
4.73706
4.77044
4.79962
4.82448
4.84493
4.86086
4.87218
4.8788
4.88062
4.87759
4.86965
4.85674
4.83884
4.81592
4.78797
4.755
4.71699
4.67398
4.62597
4.5729
4.51467
4.45161
4.38408
4.31235
4.23666
4.15723
4.07426
3.98792
3.89845
3.806
3.71064
3.6124
3.51125
3.40714
3.29995
3.18952
3.0757
2.95807
2.83767
2.71586
2.59301
2.46998
2.34796
2.22875
2.11425
2.00611
1.90602
1.81552
1.73591
1.66817
1.61291
1.5704
1.54048
1.52266
1.51608
1.51956
1.5317
1.55087
1.5754
1.60356
1.6337
1.66428
1.69397
1.7216
1.74627
1.76726
1.78409
1.79649
1.80433
1.80764
1.80656
1.80133
1.79223
1.77959
1.76377
1.74513
1.72402
1.70079
1.67577
1.64928
1.62159
1.59297
1.56366
1.53387
1.50379
1.4736
1.44343
1.41343
1.38369
1.35432
1.3254
1.29699
1.26915
1.24192
1.21535
1.18946
1.16427
1.1398
1.11606
1.09306
1.07076
1.04917
1.02828
1.00808
0.988575
0.969739
0.951567
0.934045
0.917161
0.900902
0.885258
0.870221
0.855784
0.841949
0.828719
0.816107
0.804135
0.79283
0.782224
0.772336
0.763137
0.754703
0.21185
0.315506
0.40043
0.469849
0.533079
0.593958
0.654237
0.714812
0.776185
0.83867
0.902479
0.967776
1.03469
1.10335
1.17383
1.24624
1.32064
1.3971
1.47563
1.55627
1.639
1.7238
1.81061
1.89937
1.98999
2.08233
2.17627
2.27164
2.36829
2.46602
2.56464
2.66393
2.76369
2.86368
2.96369
3.06348
3.16283
3.2615
3.35929
3.45596
3.5513
3.64511
3.73719
3.82733
3.91535
4.00108
4.08433
4.16496
4.24279
4.31769
4.3895
4.45808
4.52331
4.58506
4.64315
4.69744
4.74783
4.79421
4.83646
4.87444
4.90804
4.93714
4.9616
4.9813
4.99613
5.00598
5.01073
5.01031
5.00463
4.99362
4.97722
4.95541
4.92814
4.89541
4.85719
4.81349
4.76428
4.70946
4.6488
4.58278
4.51175
4.43597
4.35567
4.27104
4.18224
4.08931
3.99276
3.89264
3.78898
3.6818
3.57103
3.4566
3.33842
3.2164
3.09056
2.96111
2.8286
2.69379
2.55754
2.42104
2.28577
2.15348
2.02599
1.90516
1.79274
1.69031
1.59917
1.52033
1.45448
1.40195
1.36277
1.33663
1.32292
1.32074
1.32893
1.3461
1.3707
1.40104
1.43541
1.47216
1.50971
1.54665
1.58177
1.6141
1.64285
1.66748
1.68765
1.70316
1.71402
1.72029
1.72218
1.71994
1.71388
1.70432
1.69162
1.67612
1.65817
1.63811
1.61625
1.59289
1.5683
1.54272
1.5164
1.48953
1.46229
1.43486
1.40737
1.37995
1.35271
1.32574
1.29913
1.27293
1.24721
1.22202
1.19739
1.17335
1.14992
1.1271
1.1049
1.08333
1.0624
1.0421
1.02244
1.00341
0.984999
0.967209
0.950027
0.933447
0.917461
0.902065
0.887255
0.873035
0.859411
0.846396
0.834011
0.82228
0.811226
0.800864
0.791153
0.782164
0.205245
0.302043
0.385105
0.453325
0.515201
0.574511
0.633045
0.691737
0.751122
0.811534
0.873207
0.936319
1.00102
1.06743
1.13568
1.20586
1.27807
1.35236
1.42881
1.50744
1.58826
1.67128
1.75646
1.84375
1.93307
2.02433
2.11741
2.21217
2.30845
2.40609
2.50489
2.60466
2.70517
2.80623
2.90759
3.00902
3.11031
3.2112
3.31147
3.41088
3.50922
3.60624
3.70174
3.79551
3.88733
3.97702
4.06437
4.14921
4.23136
4.31064
4.38691
4.45998
4.52973
4.59598
4.65859
4.71739
4.77227
4.82308
4.86968
4.91193
4.94969
4.98281
5.01116
5.03459
5.05296
5.06614
5.074
5.07644
5.07334
5.06463
5.05023
5.03008
5.00413
4.97234
4.93469
4.89113
4.8416
4.78594
4.72405
4.65635
4.58317
4.50479
4.42142
4.3333
4.24061
4.14356
4.04231
3.93696
3.82754
3.71399
3.59626
3.47422
3.34779
3.21694
3.08176
2.94254
2.7998
2.65433
2.50725
2.35998
2.2142
2.07177
1.93464
1.80474
1.68386
1.57352
1.47497
1.38909
1.31642
1.2572
1.21137
1.17863
1.15847
1.1502
1.1529
1.16551
1.18678
1.2153
1.24958
1.28802
1.32908
1.37124
1.41313
1.45354
1.49143
1.52601
1.55667
1.58299
1.60474
1.62182
1.63428
1.64226
1.64596
1.64565
1.64165
1.63427
1.62386
1.61075
1.59526
1.57772
1.55842
1.53765
1.51565
1.49268
1.46893
1.4446
1.41988
1.39491
1.36983
1.34476
1.3198
1.29504
1.27056
1.24643
1.2227
1.1994
1.17656
1.15421
1.13239
1.11111
1.09038
1.07022
1.05063
1.03161
1.01317
0.995298
0.977998
0.961265
0.945095
0.929488
0.914445
0.899971
0.886073
0.872768
0.860072
0.848008
0.836595
0.825839
0.815699
0.806239
0.19599
0.286929
0.368307
0.43557
0.496288
0.554144
0.610964
0.667733
0.725022
0.783188
0.842479
0.903081
0.965151
1.02883
1.09423
1.16148
1.23067
1.30189
1.37522
1.4507
1.52839
1.6083
1.69041
1.77472
1.86116
1.94967
2.04017
2.13252
2.22661
2.32228
2.41937
2.51768
2.61703
2.71721
2.818
2.91917
3.0205
3.12175
3.22268
3.32305
3.42263
3.52119
3.6185
3.71432
3.80844
3.90065
3.99072
4.07848
4.16371
4.24623
4.32586
4.40242
4.47574
4.54565
4.61199
4.67459
4.73329
4.78795
4.83839
4.88448
4.92604
4.96291
4.99495
5.02198
5.04385
5.06042
5.07154
5.07708
5.07692
5.07095
5.05909
5.04125
5.01738
4.98741
4.95129
4.90899
4.8603
4.80508
4.74342
4.67567
4.60211
4.523
4.43855
4.34899
4.25448
4.15517
4.05117
3.94251
3.82916
3.71104
3.58803
3.46
3.32685
3.1886
3.04541
2.89766
2.74602
2.59145
2.4353
2.27925
2.12522
1.97529
1.83156
1.69605
1.57053
1.45646
1.35488
1.26647
1.19151
1.12996
1.08152
1.04571
1.02193
1.00947
1.00758
1.01541
1.03206
1.05648
1.08754
1.12399
1.1645
1.20769
1.25222
1.2968
1.34028
1.38163
1.42003
1.45483
1.48557
1.51193
1.53378
1.55108
1.56393
1.57248
1.57697
1.57765
1.57484
1.56884
1.55998
1.54857
1.53492
1.51933
1.50207
1.4834
1.46357
1.44279
1.42126
1.39916
1.37665
1.35388
1.33096
1.30801
1.28513
1.26239
1.23986
1.2176
1.19565
1.17408
1.15291
1.13219
1.11192
1.09214
1.07285
1.05407
1.0358
1.01805
1.00082
0.984107
0.967922
0.952264
0.937137
0.922548
0.90851
0.895035
0.882142
0.869852
0.858178
0.847125
0.836649
0.826812
0.183275
0.269461
0.349363
0.416029
0.475968
0.532694
0.588048
0.64306
0.698334
0.75425
0.811062
0.868962
0.928106
0.988634
1.05067
1.11434
1.17976
1.24703
1.31624
1.38747
1.4608
1.53626
1.61389
1.69369
1.77565
1.85974
1.9459
2.03405
2.12409
2.21591
2.30936
2.40429
2.50052
2.59787
2.69613
2.79511
2.89457
2.99428
3.09403
3.19356
3.29264
3.39103
3.48849
3.58479
3.67969
3.77296
3.86438
3.95374
4.04081
4.1254
4.2073
4.28632
4.36227
4.43498
4.50425
4.56991
4.63178
4.6897
4.74349
4.79297
4.83798
4.87833
4.91386
4.94438
4.96973
4.98975
5.00428
5.01318
5.01631
5.01355
5.0048
4.98996
4.96895
4.94171
4.90815
4.86822
4.82166
4.76832
4.70846
4.64234
4.57018
4.49219
4.40855
4.31944
4.22497
4.12522
4.02021
3.9099
3.79418
3.67289
3.54588
3.41297
3.27409
3.1293
2.97887
2.82338
2.6637
2.50112
2.3373
2.17424
2.01415
1.85936
1.71212
1.57449
1.44817
1.33443
1.2341
1.14751
1.07461
1.01501
0.9681
0.933108
0.909213
0.895587
0.891442
0.896033
0.908647
0.928571
0.955047
0.98724
1.02421
1.06493
1.10829
1.15313
1.19832
1.24279
1.28558
1.32586
1.36296
1.39638
1.42575
1.45087
1.47166
1.48814
1.50042
1.50869
1.51317
1.51412
1.51184
1.50662
1.49876
1.48855
1.47628
1.46222
1.44662
1.42971
1.41172
1.39284
1.37326
1.35314
1.33261
1.3118
1.29083
1.26979
1.24877
1.22785
1.2071
1.18659
1.16636
1.14645
1.12691
1.10774
1.08899
1.07066
1.05278
1.03535
1.01837
1.00187
0.985837
0.970288
0.955228
0.940668
0.926622
0.913103
0.90013
0.887722
0.875891
0.864638
0.853923
0.843806
0.169121
0.252405
0.331013
0.397362
0.456993
0.513158
0.567639
0.621458
0.675227
0.729324
0.784001
0.839445
0.895806
0.953221
1.01182
1.07173
1.13308
1.19598
1.26056
1.32691
1.39513
1.46531
1.5375
1.61175
1.68809
1.76653
1.84704
1.92958
2.01411
2.10053
2.18873
2.27861
2.37001
2.46278
2.55674
2.65169
2.74745
2.84379
2.9405
3.03734
3.13407
3.23047
3.32628
3.42127
3.51519
3.60782
3.6989
3.78822
3.87555
3.96066
4.04334
4.12338
4.20059
4.27475
4.34569
4.41319
4.47708
4.53717
4.59328
4.6452
4.69277
4.73578
4.77406
4.80742
4.83569
4.85868
4.87623
4.8882
4.89444
4.89483
4.88925
4.8776
4.85979
4.83574
4.80537
4.76851
4.72491
4.67467
4.61795
4.55489
4.48565
4.41036
4.32911
4.24199
4.14902
4.05018
3.94536
3.83441
3.71712
3.59326
3.4626
3.32497
3.18036
3.02895
2.87124
2.70809
2.54076
2.37097
2.20081
2.03268
1.86912
1.71266
1.56565
1.43005
1.30736
1.19857
1.10409
1.02388
0.957457
0.904064