/*--------------------------------*- C++ -*----------------------------------*\
| =========                 |                                                 |
| \\      /  F ield         | OpenFOAM: The Open Source CFD Toolbox           |
|  \\    /   O peration     | Version:  plus                                  |
|   \\  /    A nd           | Website:  www.openfoam.com                      |
|    \\/     M anipulation  |                                                 |
\*---------------------------------------------------------------------------*/
FoamFile
{
    version     2.0;
    format      ascii;
    class       volScalarField;
    location    "50";
    object      nut;
}
// * * * * * * * * * * * * * * * * * * * * * * * * * * * * * * * * * * * * * //

dimensions      [0 2 -1 0 0 0 0];


internalField   nonuniform List<scalar> 
12225
(
3.10725e-05
3.72799e-05
4.10614e-05
4.33091e-05
4.45982e-05
4.52865e-05
4.55981e-05
4.56747e-05
4.56062e-05
4.54499e-05
4.52419e-05
4.50052e-05
4.47541e-05
4.44975e-05
4.42403e-05
4.39848e-05
4.37291e-05
4.34931e-05
0.00011594
6.80475e-05
5.08027e-05
4.19577e-05
3.69074e-05
3.38144e-05
3.18229e-05
3.05002e-05
2.96102e-05
2.90152e-05
2.86299e-05
2.83991e-05
2.82857e-05
2.82632e-05
2.83127e-05
2.84197e-05
2.85696e-05
2.87318e-05
0.00036957
0.000221935
0.000160277
0.000125735
0.000103979
8.93043e-05
7.88687e-05
7.11279e-05
6.51899e-05
6.05103e-05
5.67398e-05
5.36448e-05
5.10626e-05
4.88755e-05
4.69934e-05
4.53392e-05
4.38271e-05
4.24194e-05
0.000643073
0.000474365
0.000372425
0.000306589
0.000261266
0.000228615
0.000204194
0.000185337
0.000170378
0.000158232
0.000148167
0.000139674
0.000132382
0.000126017
0.00012036
0.000115227
0.000110448
0.000105956
0.000782923
0.000683909
0.000595345
0.000523735
0.000466968
0.000421893
0.000385726
0.000356301
0.000332008
0.000311664
0.000294392
0.000279534
0.000266587
0.000255153
0.000244912
0.000235591
0.000226954
0.000218907
0.000831963
0.000790744
0.00074085
0.00069062
0.000643974
0.000602304
0.000565733
0.000533837
0.000506017
0.000481673
0.000460259
0.000441301
0.000424393
0.000409187
0.000395382
0.000382713
0.000370948
0.000360042
0.000846536
0.00083231
0.000810779
0.000784686
0.000756569
0.000728269
0.000700924
0.000675134
0.000651151
0.00062902
0.000608672
0.000589975
0.000572773
0.000556896
0.000542173
0.000528438
0.000515541
0.000503534
0.000850451
0.000845981
0.000838129
0.000827122
0.000813639
0.000798487
0.000782407
0.000765984
0.000749642
0.000733664
0.000718227
0.000703425
0.000689296
0.000675836
0.000663015
0.00065078
0.000639083
0.000628061
0.000851415
0.000849943
0.000847286
0.000843219
0.000837732
0.000830971
0.000823169
0.000814581
0.000805451
0.000795989
0.000786364
0.000776707
0.000767112
0.000757645
0.000748344
0.000739227
0.000730312
0.000721764
0.000851631
0.000850968
0.000849972
0.000848491
0.000846429
0.000843746
0.000840454
0.000836604
0.000832268
0.000827528
0.000822464
0.000817153
0.00081166
0.00080604
0.000800335
0.000794581
0.00078881
0.000783162
0.000851673
0.000851203
0.000850666
0.000850002
0.000849156
0.000848085
0.000846761
0.000845173
0.000843322
0.000841221
0.00083889
0.000836352
0.000833633
0.000830757
0.000827748
0.000824627
0.000821418
0.000818211
0.000851678
0.000851246
0.000850813
0.000850357
0.000849855
0.000849284
0.000848624
0.00084786
0.000846982
0.000845985
0.000844868
0.000843634
0.000842289
0.00084084
0.000839295
0.000837663
0.000835956
0.000834231
0.000851676
0.000851252
0.000850845
0.000850446
0.000850049
0.000849644
0.000849221
0.000848772
0.00084829
0.000847768
0.000847202
0.00084659
0.00084593
0.000845224
0.000844471
0.000843674
0.000842839
0.000841995
0.000851674
0.00085125
0.000850847
0.000850462
0.000850092
0.000849733
0.000849384
0.000849039
0.000848696
0.000848351
0.000848003
0.000847649
0.000847288
0.000846919
0.000846541
0.000846154
0.000845761
0.000845378
0.000851671
0.000851246
0.000850843
0.000850459
0.000850094
0.000849746
0.000849413
0.000849093
0.000848787
0.000848491
0.000848207
0.000847932
0.000847667
0.000847411
0.000847163
0.000846925
0.000846697
0.000846492
0.000851669
0.000851243
0.000850838
0.000850455
0.00085009
0.000849744
0.000849414
0.0008491
0.000848802
0.000848518
0.000848248
0.000847993
0.000847752
0.000847524
0.000847311
0.000847111
0.000846929
0.000846772
0.000851667
0.00085124
0.000850835
0.000850451
0.000850086
0.000849741
0.000849413
0.000849101
0.000848806
0.000848527
0.000848262
0.000848013
0.000847779
0.000847559
0.000847355
0.000847165
0.000846993
0.000846847
0.000851665
0.000851237
0.000850832
0.000850448
0.000850084
0.00084974
0.000849414
0.000849105
0.000848813
0.000848537
0.000848277
0.000848032
0.000847803
0.000847588
0.000847388
0.000847203
0.000847035
0.000846893
0.000851664
0.000851236
0.00085083
0.000850447
0.000850084
0.000849742
0.000849418
0.000849112
0.000848824
0.000848552
0.000848297
0.000848057
0.000847832
0.000847622
0.000847427
0.000847246
0.00084708
0.000846941
0.000851664
0.000851236
0.000850831
0.000850449
0.000850088
0.000849748
0.000849427
0.000849124
0.000848839
0.00084857
0.000848317
0.000848079
0.000847856
0.000847647
0.000847452
0.00084727
0.000847103
0.00084696
0.000851665
0.000851237
0.000850834
0.000850453
0.000850092
0.000849751
0.000849428
0.00084912
0.000848826
0.000848545
0.000848276
0.000848017
0.000847769
0.000847529
0.000847297
0.000847074
0.000846861
0.000846667
0.000851666
0.000851238
0.00085083
0.000850437
0.000850052
0.00084967
0.000849284
0.000848889
0.000848482
0.000848059
0.000847619
0.000847162
0.000846688
0.000846199
0.000845695
0.000845179
0.000844655
0.000844135
0.000851661
0.000851204
0.000850717
0.000850165
0.000849517
0.000848748
0.000847843
0.000846794
0.000845603
0.000844277
0.000842829
0.000841273
0.000839626
0.000837907
0.000836133
0.000834323
0.000832493
0.000830675
0.000851576
0.000850779
0.000849541
0.000847724
0.000845262
0.000842155
0.000838452
0.000834232
0.000829591
0.000824628
0.000819437
0.000814104
0.000808703
0.000803296
0.000797936
0.000792663
0.000787513
0.000782542
0.000850694
0.000847125
0.000840957
0.000832303
0.000821589
0.000809367
0.000796188
0.000782528
0.000768761
0.000755164
0.000741936
0.000729206
0.000717056
0.000705532
0.000694649
0.000684408
0.000674799
0.000665842
0.000843609
0.000823673
0.000795828
0.000764057
0.000731244
0.000699235
0.000669059
0.000641179
0.000615722
0.000592633
0.000571766
0.000552935
0.000535947
0.000520613
0.000506756
0.000494219
0.00048286
0.000472589
0.000799012
0.00071669
0.000638102
0.000570984
0.000515268
0.000469373
0.000431493
0.000400017
0.000373645
0.000351362
0.000332382
0.000316094
0.000302019
0.000289777
0.00027907
0.000269656
0.000261344
0.00025399
0.000605411
0.000437795
0.000342367
0.000280789
0.000237917
0.000206737
0.000183282
0.000165143
0.000150793
0.000139226
0.000129755
0.000121896
0.0001153
0.000109709
0.000104928
0.000100813
9.72522e-05
9.4177e-05
0.000228462
0.000138624
0.000102757
8.25657e-05
6.97486e-05
6.1114e-05
5.50379e-05
5.06171e-05
4.73172e-05
4.48042e-05
4.28603e-05
4.13382e-05
4.01352e-05
3.91779e-05
3.84129e-05
3.78006e-05
3.73117e-05
3.6929e-05
3.56042e-05
4.09358e-05
4.47633e-05
4.75252e-05
4.976e-05
5.15406e-05
5.29366e-05
5.40126e-05
5.4826e-05
5.54266e-05
5.58565e-05
5.61506e-05
5.63376e-05
5.64406e-05
5.64784e-05
5.64662e-05
5.6416e-05
5.63368e-05
8.57144e-06
2.11898e-05
2.4653e-05
2.97177e-05
3.42862e-05
3.8487e-05
4.23685e-05
4.59862e-05
4.9414e-05
5.26382e-05
5.56807e-05
5.85621e-05
6.12993e-05
6.39058e-05
6.63929e-05
6.877e-05
7.10452e-05
7.32253e-05
7.53164e-05
7.73238e-05
7.92523e-05
8.11063e-05
8.28894e-05
8.46054e-05
8.62574e-05
8.78484e-05
8.93813e-05
9.08586e-05
9.22828e-05
9.36561e-05
9.49808e-05
9.62589e-05
9.74924e-05
9.86832e-05
9.9833e-05
0.000100944
0.000102017
0.000103054
0.000104056
0.000105026
0.000105964
0.000106872
0.000107751
0.000108602
0.000109427
0.000110227
0.000111003
0.000111756
0.000112486
0.000113196
0.000113886
0.000114556
0.000115209
0.000115843
0.000116462
0.000117064
0.000117651
0.000118223
0.000118781
0.000119325
0.000119856
0.000120373
0.000120878
0.00012137
0.000121849
0.000122315
0.000122768
0.000123209
0.000123636
0.000124049
0.000124449
0.000124835
0.000125206
0.000125563
0.000125905
0.000126231
0.000126541
0.000126833
0.000127132
0.000127464
0.000127776
0.000128065
0.00012833
0.000128572
0.000128787
0.000128976
0.000129138
0.00012927
0.000129372
0.000129441
0.000129478
0.00012948
0.000129445
0.000129372
0.000129258
0.000129102
0.000128901
0.000128653
0.000128356
0.000128005
0.0001276
0.000127137
0.000126612
0.000126024
0.000125369
0.000124645
0.000123849
0.000122978
0.000122032
0.000121009
0.000119907
0.000118725
0.000117463
0.000116119
0.0001147
0.000113224
0.000111692
0.000109946
0.000107897
0.000106083
0.000104443
0.000101434
9.89994e-05
9.7542e-05
9.62069e-05
9.48828e-05
9.35543e-05
9.22226e-05
9.08915e-05
8.95651e-05
8.82468e-05
8.69397e-05
8.56466e-05
8.43698e-05
8.31112e-05
8.18728e-05
8.06559e-05
7.94617e-05
7.82913e-05
7.71455e-05
7.60249e-05
7.49298e-05
7.38607e-05
7.28177e-05
7.18008e-05
7.08101e-05
6.98454e-05
6.89066e-05
6.79935e-05
6.71059e-05
6.62433e-05
6.54056e-05
6.45923e-05
6.38031e-05
6.30377e-05
6.22957e-05
6.15767e-05
6.08803e-05
6.02061e-05
5.95538e-05
5.89231e-05
5.8313e-05
5.77266e-05
5.71622e-05
5.66183e-05
5.60938e-05
5.55878e-05
5.50994e-05
5.46279e-05
5.41724e-05
5.37319e-05
5.33052e-05
5.28908e-05
5.24866e-05
5.20894e-05
5.16947e-05
5.12948e-05
5.08764e-05
5.04134e-05
4.97902e-05
1.27007e-05
7.31283e-05
0.000102733
0.000116248
0.000127045
0.000138113
0.000149546
0.00016111
0.000172685
0.000184232
0.000195747
0.000207239
0.00021871
0.000230161
0.000241589
0.000252987
0.000264344
0.000275646
0.000286878
0.000298024
0.000309065
0.000319983
0.000330759
0.000341377
0.000351817
0.000362065
0.000372103
0.00038192
0.000391502
0.000400837
0.000409917
0.000418735
0.000427283
0.000435558
0.000443557
0.000451278
0.000458722
0.00046589
0.000472784
0.00047941
0.000485772
0.000491876
0.000497731
0.000503344
0.000508725
0.000513884
0.000518833
0.000523583
0.000528149
0.000532543
0.00053678
0.000540878
0.000544852
0.000548721
0.000552503
0.000556218
0.000559887
0.00056353
0.000567171
0.00057083
0.000574531
0.000578296
0.000582146
0.000586104
0.000590189
0.000594422
0.000598818
0.000603396
0.000608167
0.000613146
0.00061834
0.000623757
0.000629401
0.000635272
0.000641366
0.00064767
0.000654164
0.000660811
0.000667566
0.000674037
0.000680762
0.000687775
0.000695075
0.000702655
0.000710505
0.000718613
0.000726961
0.00073553
0.000744295
0.000753229
0.000762298
0.000771465
0.000780689
0.000789921
0.000799112
0.000808206
0.000817145
0.000825864
0.000834298
0.00084238
0.000850038
0.000857202
0.000863801
0.000869766
0.000875028
0.000879523
0.000883191
0.000885974
0.000887823
0.000888693
0.000888547
0.000887354
0.000885086
0.000881722
0.000877281
0.000871803
0.000865307
0.000857595
0.000848111
0.000837716
0.000826875
0.00081249
0.000795788
0.000778351
0.000760469
0.000742359
0.000724195
0.000706108
0.0006882
0.000670548
0.000653212
0.000636237
0.000619659
0.000603503
0.000587789
0.000572531
0.000557736
0.000543408
0.000529548
0.000516154
0.000503222
0.000490744
0.000478714
0.000467122
0.000455958
0.000445213
0.000434875
0.000424933
0.000415376
0.000406192
0.00039737
0.000388898
0.000380766
0.000372962
0.000365474
0.000358294
0.000351409
0.00034481
0.000338486
0.000332426
0.000326621
0.000321012
0.000315581
0.000310375
0.000305385
0.000300602
0.000296018
0.00029162
0.000287395
0.000283328
0.0002794
0.000275589
0.000271862
0.000268179
0.000264476
0.000260648
0.00025651
0.000251675
0.000245135
0.000233377
1.67077e-05
0.000107945
0.00016698
0.000197731
0.00021941
0.000239505
0.000260022
0.000281254
0.000303132
0.000325563
0.000348479
0.000371829
0.000395566
0.000419641
0.000444003
0.000468598
0.000493368
0.000518254
0.000543194
0.000568127
0.00059299
0.000617723
0.000642269
0.000666571
0.000690577
0.000714237
0.000737506
0.000760342
0.000782708
0.000804571
0.000825901
0.000846672
0.000866863
0.000886457
0.000905437
0.000923794
0.000941518
0.000958604
0.000975051
0.000990856
0.00100602
0.00102056
0.00103446
0.00104775
0.00106042
0.0010725
0.00108399
0.0010949
0.00110527
0.0011151
0.00112441
0.00113323
0.00114158
0.00114948
0.00115695
0.00116404
0.00117077
0.00117717
0.00118327
0.00118911
0.00119471
0.00120013
0.00120538
0.00121052
0.00121556
0.00122054
0.0012255
0.00123045
0.00123544
0.00124048
0.00124559
0.0012508
0.00125611
0.00126154
0.00126708
0.00127275
0.00127852
0.00128437
0.00129028
0.00129625
0.00130252
0.00130912
0.00131606
0.00132333
0.00133093
0.00133884
0.00134706
0.00135555
0.0013643
0.00137326
0.00138242
0.00139173
0.00140114
0.0014106
0.00142006
0.00142946
0.00143873
0.0014478
0.00145661
0.00146508
0.00147311
0.00148064
0.00148756
0.00149379
0.00149923
0.00150379
0.00150736
0.00150984
0.00151114
0.00151115
0.00150978
0.00150693
0.00150253
0.00149648
0.00148874
0.0014793
0.0014681
0.00145501
0.00144021
0.00142416
0.00140724
0.00138837
0.00136751
0.00134517
0.00132168
0.00129734
0.00127242
0.00124714
0.0012217
0.00119626
0.00117093
0.00114583
0.00112105
0.00109665
0.00107271
0.00104927
0.00102636
0.00100402
0.000982266
0.000961114
0.000940576
0.000920656
0.000901357
0.000882677
0.000864612
0.000847155
0.000830299
0.000814032
0.000798344
0.000783223
0.000768657
0.00075463
0.000741131
0.000728143
0.000715654
0.000703647
0.00069211
0.000681025
0.000670379
0.000660157
0.000650342
0.000640906
0.000631797
0.000623003
0.000614544
0.000606405
0.000598571
0.000591025
0.000583745
0.000576707
0.000569881
0.000563229
0.000556699
0.000550221
0.000543689
0.000536932
0.000529644
0.000521198
0.000510045
0.000492628
1.95861e-05
0.00013469
0.000221588
0.000271019
0.00030528
0.000335214
0.000364836
0.000395327
0.000426913
0.000459549
0.000493136
0.000527567
0.000562736
0.000598536
0.000634862
0.000671606
0.000708658
0.00074591
0.000783255
0.000820587
0.000857806
0.000894814
0.000931519
0.000967835
0.00100368
0.00103898
0.00107367
0.00110769
0.00114097
0.00117348
0.00120516
0.00123598
0.0012659
0.00129491
0.00132297
0.00135007
0.00137619
0.00140133
0.00142547
0.0014486
0.00147074
0.00149189
0.00151203
0.00153119
0.00154937
0.00156657
0.00158282
0.00159813
0.00161251
0.00162597
0.00163855
0.00165025
0.0016611
0.00167112
0.00168035
0.0016888
0.00169651
0.0017035
0.00170982
0.00171549
0.00172054
0.00172502
0.00172897
0.00173241
0.00173539
0.00173795
0.00174013
0.00174197
0.00174349
0.00174475
0.00174578
0.00174661
0.00174728
0.00174781
0.00174824
0.0017486
0.00174891
0.00174918
0.00174943
0.00174977
0.0017503
0.00175106
0.00175205
0.0017533
0.00175483
0.00175663
0.00175872
0.0017611
0.00176377
0.00176674
0.00176999
0.00177353
0.00177735
0.00178142
0.00178575
0.00179031
0.00179509
0.00180006
0.00180519
0.00181045
0.0018158
0.00182118
0.00182654
0.0018318
0.00183686
0.00184163
0.00184598
0.00184977
0.00185283
0.00185502
0.00185614
0.001856
0.00185442
0.00185122
0.00184622
0.0018393
0.00183036
0.00181943
0.00180675
0.00179253
0.00177686
0.00175937
0.00173995
0.00171874
0.00169595
0.00167183
0.00164665
0.00162064
0.00159404
0.00156702
0.00153976
0.00151242
0.00148512
0.00145797
0.00143107
0.0014045
0.00137833
0.00135261
0.0013274
0.00130274
0.00127865
0.00125516
0.0012323
0.00121006
0.00118847
0.00116752
0.00114723
0.00112758
0.00110858
0.00109021
0.00107248
0.00105536
0.00103886
0.00102295
0.00100763
0.000992876
0.000978681
0.000965029
0.000951902
0.000939285
0.000927161
0.000915508
0.000904296
0.000893486
0.000883074
0.000873045
0.000863379
0.000854057
0.000845054
0.000836345
0.000827896
0.000819667
0.000811603
0.000803632
0.000795648
0.000787484
0.00077885
0.000769171
0.000757154
0.000740794
2.18502e-05
0.000153927
0.000265993
0.000334195
0.000381772
0.000421954
0.000460502
0.000499578
0.000539851
0.000581437
0.000624263
0.000668202
0.000713106
0.000758825
0.000805208
0.000852104
0.000899363
0.000946839
0.00099439
0.00104188
0.00108918
0.00113616
0.00118272
0.00122873
0.00127411
0.00131876
0.00136259
0.00140553
0.00144752
0.00148848
0.00152836
0.00156712
0.00160472
0.00164111
0.00167627
0.00171018
0.00174281
0.00177415
0.00180419
0.00183291
0.00186032
0.00188642
0.00191119
0.00193465
0.00195681
0.00197767
0.00199723
0.00201552
0.00203255
0.00204832
0.00206285
0.00207617
0.00208829
0.00209923
0.002109
0.00211765
0.00212517
0.00213161
0.002137
0.00214135
0.0021447
0.00214708
0.00214853
0.00214907
0.00214876
0.00214762
0.0021457
0.00214304
0.00213968
0.00213566
0.00213103
0.00212584
0.00212013
0.00211394
0.00210734
0.00210035
0.00209304
0.00208544
0.00207759
0.00206964
0.00206167
0.00205372
0.00204582
0.00203802
0.00203036
0.00202288
0.00201563
0.00200864
0.00200196
0.00199562
0.00198967
0.00198416
0.00197913
0.00197464
0.00197073
0.00196747
0.0019649
0.00196308
0.00196207
0.00196191
0.00196264
0.00196428
0.00196684
0.0019703
0.0019746
0.00197966
0.00198536
0.00199153
0.00199795
0.0020044
0.00201058
0.00201619
0.00202091
0.00202439
0.00202624
0.00202648
0.00202453
0.00202061
0.00201481
0.00200716
0.00199762
0.001986
0.00197222
0.00195627
0.00193828
0.00191844
0.00189698
0.00187413
0.00185014
0.00182522
0.00179958
0.00177341
0.00174686
0.00172009
0.00169324
0.00166642
0.00163974
0.00161328
0.00158712
0.00156134
0.00153599
0.00151111
0.00148676
0.00146295
0.00143972
0.00141709
0.00139507
0.00137368
0.00135293
0.00133281
0.00131333
0.00129448
0.00127626
0.00125867
0.0012417
0.00122533
0.00120955
0.00119436
0.00117974
0.00116567
0.00115214
0.00113912
0.00112661
0.00111457
0.00110296
0.00109178
0.00108099
0.00107059
0.00106055
0.00105084
0.00104142
0.00103228
0.00102335
0.00101458
0.00100588
0.000997117
0.00098808
0.000978345
0.000967045
0.000953387
2.35989e-05
0.000166788
0.000300242
0.000386185
0.000446951
0.000497295
0.000544371
0.000591264
0.000639146
0.000688368
0.000738947
0.000790774
0.000843689
0.000897519
0.000952086
0.00100721
0.00106272
0.00111844
0.0011742
0.00122986
0.00128526
0.00134027
0.00139474
0.00144856
0.00150161
0.00155379
0.00160501
0.00165516
0.00170418
0.00175198
0.00179852
0.00184372
0.00188754
0.00192993
0.00197086
0.0020103
0.00204822
0.00208459
0.00211941
0.00215265
0.00218431
0.00221439
0.00224287
0.00226977
0.00229508
0.00231881
0.00234096
0.00236154
0.00238056
0.00239803
0.00241396
0.00242837
0.00244126
0.00245266
0.00246257
0.00247102
0.00247802
0.00248359
0.00248775
0.00249052
0.00249192
0.00249199
0.00249074
0.0024882
0.0024844
0.00247939
0.00247318
0.00246582
0.00245735
0.00244781
0.00243724
0.00242569
0.00241321
0.00239986
0.00238568
0.00237073
0.00235508
0.00233878
0.00232188
0.00230457
0.0022869
0.00226894
0.00225075
0.0022324
0.00221396
0.00219551
0.00217711
0.00215884
0.00214079
0.00212304
0.00210569
0.00208884
0.00207259
0.00205709
0.00204245
0.00202881
0.00201634
0.00200519
0.00199553
0.00198752
0.00198133
0.0019771
0.00197495
0.00197495
0.00197715
0.00198152
0.00198798
0.00199637
0.00200645
0.00201791
0.00203038
0.00204337
0.00205642
0.00206903
0.00208059
0.00209061
0.00209895
0.00210547
0.00211002
0.00211245
0.00211259
0.00211027
0.00210534
0.00209777
0.0020876
0.00207496
0.00206007
0.00204314
0.00202441
0.00200412
0.00198251
0.0019598
0.00193619
0.00191188
0.00188704
0.00186182
0.00183638
0.00181084
0.00178531
0.00175989
0.00173467
0.00170973
0.00168514
0.00166094
0.0016372
0.00161394
0.00159121
0.00156902
0.00154741
0.00152639
0.00150596
0.00148615
0.00146694
0.00144835
0.00143037
0.001413
0.00139622
0.00138004
0.00136445
0.00134942
0.00133495
0.00132102
0.00130762
0.00129472
0.00128228
0.00127029
0.00125872
0.00124757
0.0012368
0.00122639
0.00121632
0.00120656
0.00119707
0.00118781
0.00117871
0.0011697
0.00116063
0.00115123
0.00114097
0.00112972
2.49142e-05
0.000174315
0.00032487
0.00042678
0.000499986
0.000559991
0.000614991
0.000668869
0.0007233
0.000778912
0.000835858
0.000894083
0.000953447
0.00101377
0.00107487
0.00113656
0.00119864
0.00126093
0.00132326
0.00138546
0.00144737
0.00150883
0.00156971
0.00162987
0.00168918
0.00174753
0.00180482
0.00186094
0.0019158
0.00196932
0.00202143
0.00207206
0.00212115
0.00216865
0.00221452
0.0022587
0.00230117
0.00234191
0.00238088
0.00241808
0.00245347
0.00248707
0.00251884
0.0025488
0.00257694
0.00260326
0.00262776
0.00265045
0.00267132
0.00269039
0.00270766
0.00272314
0.00273684
0.00274876
0.00275892
0.00276732
0.00277398
0.00277891
0.00278211
0.0027836
0.0027834
0.00278152
0.00277798
0.0027728
0.00276599
0.00275758
0.0027476
0.00273607
0.00272302
0.0027085
0.00269252
0.00267514
0.0026564
0.00263635
0.00261503
0.0025925
0.00256883
0.00254408
0.00251831
0.00249168
0.00246428
0.00243619
0.00240748
0.00237823
0.00234855
0.00231851
0.00228823
0.0022578
0.00222733
0.00219697
0.00216683
0.00213708
0.00210789
0.00207945
0.00205197
0.0020257
0.0020009
0.00197785
0.00195685
0.00193822
0.00192228
0.00190936
0.00189973
0.00189365
0.0018913
0.00189279
0.00189816
0.00190728
0.00191994
0.00193579
0.00195437
0.00197499
0.00199722
0.00201971
0.00204211
0.0020639
0.00208462
0.00210383
0.00212113
0.00213616
0.0021486
0.00215816
0.00216464
0.00216791
0.00216797
0.00216489
0.00215882
0.00214999
0.00213861
0.00212495
0.00210926
0.0020918
0.00207281
0.00205253
0.00203117
0.00200894
0.00198602
0.00196259
0.0019388
0.00191479
0.00189068
0.00186657
0.00184258
0.00181878
0.00179525
0.00177205
0.00174924
0.00172686
0.00170495
0.00168354
0.00166267
0.00164234
0.00162257
0.00160339
0.00158478
0.00156675
0.00154931
0.00153245
0.00151617
0.00150045
0.0014853
0.00147069
0.00145663
0.00144306
0.00142997
0.00141733
0.00140514
0.00139338
0.00138203
0.00137107
0.00136048
0.00135023
0.00134031
0.00133069
0.00132132
0.00131217
0.00130316
0.00129412
0.00128475
0.00127521
2.58622e-05
0.000177428
0.00034069
0.000456336
0.000540837
0.000609722
0.000671887
0.000731875
0.00079183
0.000852672
0.00091472
0.000978007
0.00104243
0.00110784
0.00117405
0.00124087
0.0013081
0.00137557
0.00144309
0.00151049
0.00157761
0.00164428
0.00171035
0.00177569
0.00184016
0.00190363
0.001966
0.00202715
0.00208698
0.0021454
0.00220232
0.00225767
0.00231139
0.0023634
0.00241365
0.0024621
0.00250871
0.00255343
0.00259624
0.00263711
0.00267602
0.00271295
0.00274789
0.00278084
0.00281177
0.00284069
0.0028676
0.00289248
0.00291535
0.00293621
0.00295505
0.00297187
0.00298668
0.00299949
0.00301029
0.00301909
0.0030259
0.00303071
0.00303353
0.00303436
0.00303322
0.0030301
0.00302502
0.00301798
0.00300899
0.00299807
0.00298523
0.00297048
0.00295385
0.00293536
0.00291503
0.00289288
0.00286897
0.00284331
0.00281595
0.00278693
0.00275631
0.00272415
0.00269049
0.00265549
0.00261923
0.0025818
0.00254328
0.00250376
0.00246334
0.00242213
0.00238022
0.00233775
0.00229483
0.00225162
0.00220828
0.00216499
0.00212197
0.00207947
0.00203779
0.00199724
0.0019582
0.00192106
0.00188627
0.00185432
0.00182571
0.00180099
0.00178067
0.00176522
0.00175504
0.00175047
0.00175173
0.00175885
0.00177161
0.00178973
0.00181291
0.00183967
0.00186951
0.00190154
0.00193499
0.00196904
0.00200292
0.00203589
0.00206728
0.00209648
0.00212296
0.00214628
0.00216609
0.00218217
0.00219441
0.00220282
0.00220748
0.00220858
0.00220633
0.00220099
0.00219282
0.00218213
0.00216918
0.00215425
0.00213761
0.0021195
0.00210017
0.00207983
0.00205868
0.0020369
0.00201465
0.00199209
0.00196934
0.00194653
0.00192376
0.00190111
0.00187868
0.00185653
0.00183471
0.00181328
0.00179229
0.00177175
0.00175171
0.00173218
0.00171318
0.00169473
0.00167683
0.00165948
0.00164268
0.00162645
0.00161076
0.00159562
0.001581
0.00156687
0.00155321
0.00154003
0.0015273
0.00151501
0.00150314
0.00149169
0.00148064
0.00146997
0.00145967
0.00144973
0.00144012
0.00143084
0.00142185
0.00141307
0.0014043
0.00139584
2.64946e-05
0.000176955
0.000348667
0.000475568
0.00056998
0.000646802
0.000715299
0.000780518
0.000845024
0.000910028
0.000976032
0.00104318
0.00111144
0.00118068
0.00125074
0.00132145
0.00139262
0.00146406
0.00153561
0.00160708
0.0016783
0.00174912
0.00181938
0.00188894
0.00195766
0.00202539
0.00209203
0.00215745
0.00222154
0.0022842
0.00234534
0.00240487
0.00246272
0.0025188
0.00257306
0.00262544
0.00267589
0.00272436
0.00277081
0.00281522
0.00285755
0.00289778
0.00293588
0.00297185
0.00300567
0.00303732
0.00306681
0.00309411
0.00311923
0.00314217
0.00316291
0.00318146
0.00319781
0.00321197
0.00322392
0.00323366
0.00324121
0.00324654
0.00324966
0.00325056
0.00324925
0.00324572
0.00323996
0.00323199
0.00322179
0.00320937
0.00319474
0.0031779
0.00315885
0.00313761
0.00311419
0.0030886
0.00306086
0.00303099
0.00299901
0.00296496
0.00292887
0.00289077
0.00285071
0.00280879
0.00276511
0.00271975
0.00267279
0.00262431
0.00257442
0.0025232
0.00247076
0.00241723
0.00236272
0.00230739
0.00225141
0.00219497
0.0021383
0.00208169
0.00202548
0.00197005
0.00191589
0.0018635
0.00181343
0.00176631
0.00172282
0.00168376
0.00164994
0.00162205
0.0016007
0.00158659
0.00158011
0.00158164
0.0015911
0.00160793
0.00163169
0.00166158
0.00169681
0.0017364
0.00177932
0.0018245
0.00187085
0.00191733
0.00196297
0.00200686
0.00204822
0.00208637
0.00212079
0.00215107
0.00217698
0.00219839
0.00221533
0.0022279
0.00223628
0.00224071
0.00224148
0.00223888
0.00223322
0.00222482
0.00221399
0.00220103
0.00218622
0.00216982
0.00215209
0.00213326
0.00211354
0.00209312
0.00207216
0.00205084
0.00202927
0.0020076
0.00198592
0.00196434
0.00194293
0.00192176
0.00190089
0.00188039
0.00186028
0.00184061
0.0018214
0.00180268
0.00178446
0.00176676
0.00174958
0.00173294
0.00171683
0.00170123
0.00168612
0.00167149
0.00165735
0.00164367
0.00163045
0.00161768
0.00160536
0.00159346
0.00158198
0.00157091
0.00156025
0.00155
0.00154015
0.00153071
0.00152168
0.001513
0.00150458
0.0014967
2.68514e-05
0.000173647
0.00034986
0.000485428
0.000588239
0.000671992
0.000745976
0.000815588
0.000883748
0.000951946
0.00102088
0.00109081
0.00116179
0.00123375
0.00130656
0.00138005
0.00145406
0.00152842
0.00160295
0.00167748
0.00175184
0.00182587
0.00189942
0.00197234
0.00204448
0.0021157
0.00218588
0.00225488
0.0023226
0.00238892
0.00245373
0.00251694
0.00257847
0.00263822
0.00269614
0.00275214
0.00280617
0.00285818
0.00290812
0.00295594
0.00300161
0.0030451
0.00308637
0.00312542
0.00316221
0.00319673
0.00322897
0.0032589
0.00328653
0.00331183
0.00333481
0.00335545
0.00337375
0.00338969
0.00340328
0.0034145
0.00342334
0.0034298
0.00343387
0.00343553
0.00343478
0.00343162
0.00342602
0.00341799
0.00340751
0.00339457
0.00337918
0.00336132
0.00334098
0.00331818
0.00329291
0.00326516
0.00323495
0.00320227
0.00316713
0.00312954
0.0030895
0.00304703
0.00300213
0.00295488
0.00290537
0.00285369
0.0027999
0.00274407
0.00268628
0.00262661
0.00256515
0.00250202
0.00243733
0.00237122
0.00230385
0.00223541
0.00216614
0.00209631
0.00202629
0.0019565
0.00188754
0.00182005
0.00175464
0.00169202
0.00163294
0.00157844
0.00152978
0.00148767
0.00145284
0.0014266
0.00140954
0.00140187
0.00140377
0.00141511
0.00143559
0.00146461
0.0015014
0.00154495
0.00159413
0.00164767
0.00170425
0.00176254
0.00182124
0.00187913
0.00193511
0.00198823
0.0020377
0.00208288
0.00212333
0.00215878
0.00218912
0.00221433
0.00223455
0.00224996
0.00226084
0.00226747
0.0022702
0.00226937
0.00226533
0.00225841
0.00224896
0.00223729
0.0022237
0.00220848
0.00219187
0.00217413
0.00215546
0.00213607
0.00211612
0.00209579
0.0020752
0.00205448
0.00203375
0.00201308
0.00199258
0.00197231
0.00195232
0.00193267
0.00191341
0.00189456
0.00187615
0.00185822
0.00184076
0.00182381
0.00180734
0.00179134
0.00177581
0.00176076
0.00174618
0.00173206
0.00171841
0.00170521
0.00169246
0.00168014
0.00166827
0.00165683
0.00164582
0.00163527
0.00162516
0.00161553
0.00160639
0.0015977
0.0015894
0.00158177
2.69634e-05
0.000168179
0.000345358
0.000487008
0.00059666
0.000686336
0.000765017
0.00083827
0.000909296
0.000979838
0.00105079
0.00112255
0.00119527
0.00126895
0.00134348
0.00141875
0.00149461
0.00157089
0.00164744
0.00172408
0.00180065
0.00187701
0.00195298
0.00202842
0.00210319
0.00217713
0.00225012
0.00232202
0.00239271
0.00246207
0.00252998
0.00259635
0.00266108
0.00272407
0.00278524
0.00284451
0.00290182
0.0029571
0.00301029
0.00306135
0.00311022
0.00315688
0.00320127
0.00324338
0.00328317
0.00332062
0.0033557
0.00338841
0.00341871
0.0034466
0.00347206
0.00349508
0.00351564
0.00353373
0.00354934
0.00356245
0.00357306
0.00358114
0.00358669
0.00358969
0.00359012
0.00358797
0.00358323
0.00357587
0.00356588
0.00355325
0.00353796
0.00351999
0.00349934
0.00347598
0.00344992
0.00342112
0.00338959
0.0033553
0.00331824
0.0032784
0.00323574
0.00319025
0.0031419
0.00309073
0.00303684
0.0029803
0.00292116
0.00285946
0.00279525
0.0027286
0.00265959
0.00258832
0.00251488
0.00243941
0.00236206
0.00228303
0.00220254
0.00212086
0.00203833
0.00195536
0.00187274
0.00179135
0.00171184
0.00163489
0.00156112
0.00149177
0.00142902
0.0013733
0.0013255
0.00128663
0.00125746
0.00123856
0.00123033
0.00123297
0.00124642
0.00127038
0.0013043
0.00134732
0.00139839
0.00145622
0.00151936
0.00158629
0.00165544
0.00172529
0.0017944
0.00186149
0.00192544
0.00198533
0.00204046
0.00209032
0.00213461
0.00217318
0.00220603
0.00223329
0.00225517
0.00227195
0.00228396
0.00229156
0.00229513
0.00229504
0.00229169
0.00228543
0.00227662
0.00226559
0.00225265
0.00223808
0.00222215
0.0022051
0.00218714
0.00216848
0.00214929
0.00212973
0.00210992
0.00209
0.00207007
0.00205022
0.00203052
0.00201106
0.00199188
0.00197304
0.00195457
0.00193651
0.00191889
0.00190169
0.00188492
0.0018686
0.00185274
0.00183733
0.00182238
0.00180789
0.00179385
0.00178027
0.00176714
0.00175446
0.00174223
0.00173044
0.00171912
0.00170827
0.00169791
0.00168807
0.00167876
0.00166997
0.00166164
0.00165403
2.68534e-05
0.0001611
0.000336137
0.000481387
0.000596356
0.000691024
0.000773729
0.000850016
0.000923272
0.000995459
0.00106766
0.00114043
0.00121402
0.0012885
0.00136383
0.00143994
0.00151668
0.00159394
0.00167155
0.00174936
0.00182722
0.00190498
0.00198248
0.00205958
0.00213612
0.00221196
0.00228697
0.00236101
0.00243394
0.00250565
0.00257602
0.00264493
0.00271228
0.00277797
0.00284191
0.002904
0.00296418
0.00302237
0.00307849
0.00313251
0.00318435
0.00323396
0.00328132
0.00332636
0.00336907
0.00340941
0.00344734
0.00348284
0.00351589