/*--------------------------------*- C++ -*----------------------------------*\
| =========                 |                                                 |
| \\      /  F ield         | OpenFOAM: The Open Source CFD Toolbox           |
|  \\    /   O peration     | Version:  plus                                  |
|   \\  /    A nd           | Website:  www.openfoam.com                      |
|    \\/     M anipulation  |                                                 |
\*---------------------------------------------------------------------------*/
FoamFile
{
    version     2.0;
    format      ascii;
    class       volScalarField;
    location    "50";
    object      p;
}
// * * * * * * * * * * * * * * * * * * * * * * * * * * * * * * * * * * * * * //

dimensions      [0 2 -2 0 0 0 0];


internalField   nonuniform List<scalar> 
12225
(
-1.66939
-4.08996
-4.94714
-5.19084
-5.32553
-5.43795
-5.52463
-5.58398
-5.62125
-5.64204
-5.64945
-5.644
-5.62437
-5.58794
-5.53078
-5.44643
-5.31925
-5.05972
-5.04497
-5.47149
-5.66682
-5.638
-5.61865
-5.63641
-5.6628
-5.68249
-5.69305
-5.69552
-5.69011
-5.67551
-5.64927
-5.60816
-5.54809
-5.4634
-5.35085
-5.24261
-5.14759
-5.01138
-5.19504
-5.28983
-5.36457
-5.44685
-5.51942
-5.57327
-5.60972
-5.63217
-5.64233
-5.64001
-5.62377
-5.59149
-5.5407
-5.46949
-5.38433
-5.31112
-5.02109
-4.97065
-5.2173
-5.37249
-5.46396
-5.53959
-5.59987
-5.64204
-5.66879
-5.68339
-5.68719
-5.67982
-5.65997
-5.62605
-5.57664
-5.51163
-5.43612
-5.35792
-5.04313
-5.06794
-5.27601
-5.41112
-5.48463
-5.54371
-5.59381
-5.63175
-5.65786
-5.67354
-5.67921
-5.67428
-5.65768
-5.62842
-5.58594
-5.53075
-5.46581
-5.3947
-5.10917
-5.14682
-5.30413
-5.41994
-5.48912
-5.54632
-5.59685
-5.63691
-5.66551
-5.68337
-5.69097
-5.68814
-5.6744
-5.6494
-5.61323
-5.56687
-5.51303
-5.45684
-5.16937
-5.20384
-5.32634
-5.43078
-5.50057
-5.55804
-5.60821
-5.64818
-5.67693
-5.69521
-5.70372
-5.70266
-5.69198
-5.6717
-5.64234
-5.60524
-5.56329
-5.52152
-5.22418
-5.25541
-5.35405
-5.44828
-5.51691
-5.57296
-5.62126
-5.66013
-5.68879
-5.70791
-5.7182
-5.72
-5.71344
-5.6988
-5.67687
-5.64923
-5.61858
-5.58881
-5.27715
-5.30553
-5.38591
-5.46946
-5.53496
-5.58888
-5.63529
-5.67343
-5.70266
-5.72339
-5.73623
-5.74157
-5.73967
-5.73104
-5.71666
-5.69818
-5.67796
-5.65903
-5.32871
-5.35397
-5.41992
-5.49316
-5.55472
-5.60654
-5.65153
-5.68942
-5.71963
-5.74237
-5.75812
-5.7673
-5.77034
-5.76791
-5.76112
-5.75157
-5.7413
-5.73283
-5.37867
-5.40069
-5.45533
-5.51939
-5.57678
-5.62661
-5.67054
-5.70846
-5.73987
-5.76483
-5.78375
-5.79709
-5.80539
-5.80943
-5.81033
-5.80958
-5.80895
-5.81052
-5.42299
-5.44212
-5.48867
-5.54547
-5.59908
-5.64712
-5.69026
-5.72837
-5.76102
-5.78819
-5.81023
-5.82761
-5.84094
-5.85103
-5.85895
-5.86607
-5.87392
-5.88424
-5.46542
-5.48208
-5.52217
-5.57282
-5.62292
-5.6693
-5.71184
-5.75033
-5.78439
-5.81394
-5.83929
-5.86089
-5.87936
-5.89549
-5.9103
-5.925
-5.94088
-5.95948
-5.51204
-5.52648
-5.56083
-5.60575
-5.65235
-5.69713
-5.73934
-5.77863
-5.81463
-5.84724
-5.87669
-5.9034
-5.92796
-5.95108
-5.97366
-5.99671
-6.02127
-6.0486
-5.56233
-5.57489
-5.60447
-5.64445
-5.68788
-5.73135
-5.77368
-5.81434
-5.85291
-5.8893
-5.92365
-5.95632
-5.98779
-6.01868
-6.0497
-6.08165
-6.1153
-6.15165
-5.61523
-5.62634
-5.65239
-5.68861
-5.72965
-5.77246
-5.81564
-5.85843
-5.90039
-5.94136
-5.98145
-6.02089
-6.06006
-6.09938
-6.13939
-6.18064
-6.22365
-6.2692
-5.66877
-5.679
-5.70296
-5.73702
-5.77698
-5.82023
-5.86529
-5.91126
-5.95759
-6.00407
-6.05071
-6.09766
-6.1451
-6.1933
-6.24257
-6.29323
-6.34556
-6.4001
-5.71919
-5.72926
-5.75278
-5.78664
-5.82735
-5.87262
-5.92098
-5.9714
-6.02325
-6.0762
-6.13016
-6.18514
-6.24121
-6.29845
-6.35696
-6.41685
-6.4782
-6.54138
-5.7593
-5.77017
-5.79526
-5.83148
-5.87546
-5.92499
-5.97857
-6.03511
-6.09385
-6.15431
-6.2163
-6.27972
-6.34453
-6.41066
-6.47803
-6.54657
-6.61617
-6.687
-5.77128
-5.78368
-5.81215
-5.85312
-5.90258
-5.95789
-6.01752
-6.0804
-6.1457
-6.21286
-6.2816
-6.35179
-6.42333
-6.4961
-6.56995
-6.64473
-6.72023
-6.79652
-5.76329
-5.77721
-5.80967
-5.85641
-5.91197
-5.97302
-6.03809
-6.10634
-6.17697
-6.24937
-6.32322
-6.39834
-6.47462
-6.55191
-6.63
-6.70874
-6.78791
-6.86756
-5.74147
-5.75677
-5.79425
-5.84859
-5.91142
-5.97837
-6.04856
-6.12159
-6.19677
-6.2735
-6.3515
-6.43065
-6.51081
-6.59174
-6.67316
-6.75482
-6.83645
-6.91805
-5.70993
-5.72546
-5.7691
-5.83333
-5.90442
-5.97739
-6.05265
-6.13022
-6.20927
-6.28925
-6.37016
-6.45213
-6.53515
-6.61897
-6.70325
-6.78763
-6.87177
-6.95565
-5.67244
-5.68572
-5.73777
-5.81401
-5.89253
-5.9706
-6.05117
-6.13395
-6.21729
-6.30042
-6.38355
-6.46714
-6.55142
-6.63633
-6.72163
-6.80699
-6.89199
-6.97628
-5.63082
-5.63736
-5.70672
-5.79873
-5.88086
-5.95977
-6.04314
-6.13016
-6.21812
-6.30571
-6.3929
-6.47992
-6.56695
-6.65396
-6.74081
-6.82735
-6.91334
-6.99875
-5.58567
-5.56309
-5.67083
-5.79215
-5.88009
-5.95762
-6.03836
-6.12235
-6.20776
-6.29402
-6.38114
-6.46902
-6.55733
-6.64566
-6.73368
-6.82112
-6.90758
-6.99213
-5.57785
-5.44532
-5.5924
-5.75482
-5.8705
-5.97117
-6.06779
-6.15982
-6.24799
-6.33448
-6.42094
-6.50798
-6.59544
-6.68286
-6.76986
-6.85616
-6.94149
-7.02557
-5.72513
-5.42985
-5.50886
-5.60653
-5.6987
-5.80737
-5.92206
-6.03238
-6.13666
-6.23713
-6.33596
-6.43412
-6.53163
-6.62813
-6.72325
-6.81679
-6.9085
-6.99679
-5.75878
-5.98322
-6.11615
-6.08031
-6.05789
-6.08702
-6.14385
-6.21009
-6.28005
-6.35352
-6.43106
-6.51247
-6.59688
-6.68316
-6.77038
-6.858
-6.94593
-7.03434
-2.33416
-4.46246
-5.30449
-5.55558
-5.69692
-5.83204
-5.95955
-6.07421
-6.17815
-6.27593
-6.37117
-6.4657
-6.56003
-6.65395
-6.74718
-6.83969
-6.93211
-7.02735
-5.75327
-5.75658
-5.76286
-5.77308
-5.79117
-5.81939
-5.85911
-5.91137
-5.97696
-6.05654
-6.15052
-6.25918
-6.38268
-6.52087
-6.67336
-6.8397
-7.0194
-7.21193
-7.41668
-7.63295
-7.85989
-8.09669
-8.34267
-8.59721
-8.85964
-9.12914
-9.40493
-9.68644
-9.97319
-10.2647
-10.5602
-10.8591
-11.1609
-11.4654
-11.772
-12.0803
-12.3897
-12.6998
-13.0104
-13.3211
-13.6314
-13.9409
-14.2493
-14.5564
-14.8616
-15.1646
-15.465
-15.7626
-16.0568
-16.347
-16.6329
-16.914
-17.1897
-17.4594
-17.7222
-17.9777
-18.2251
-18.4636
-18.6923
-18.9104
-19.1173
-19.3118
-19.4931
-19.6604
-19.8126
-19.9488
-20.0677
-20.1684
-20.2494
-20.3091
-20.346
-20.3582
-20.3436
-20.2998
-20.2244
-20.1148
-19.9682
-19.7818
-19.5528
-19.2783
-18.9555
-18.5814
-18.1531
-17.6678
-17.1227
-16.5154
-15.8438
-15.1062
-14.3017
-13.43
-12.4918
-11.4885
-10.423
-9.29902
-8.12155
-6.89677
-5.6319
-4.33519
-3.01566
-1.68299
-0.34731
0.981096
2.29204
3.57566
4.82262
6.02437
7.17329
8.26284
9.2876
10.2435
11.1279
11.9392
12.6772
13.3427
13.9382
14.4667
14.9322
15.3394
15.6934
15.9994
16.2628
16.4888
16.6791
16.8348
16.958
17.0521
17.1204
17.1665
17.1935
17.2043
17.2017
17.1879
17.1651
17.1351
17.0993
17.0592
17.0159
16.9704
16.9234
16.8757
16.8277
16.78
16.7329
16.6867
16.6415
16.5977
16.5552
16.5142
16.4747
16.4368
16.4005
16.3657
16.3324
16.3007
16.2703
16.2414
16.2137
16.1873
16.1621
16.1381
16.115
16.093
16.0719
16.0516
16.0321
16.0134
15.9955
15.9782
15.9618
15.9461
15.9314
15.9179
15.9059
15.8959
15.889
15.8865
15.8911
15.9077
15.9466
16.0275
-5.72129
-5.73351
-5.74284
-5.74714
-5.75805
-5.77991
-5.8141
-5.86161
-5.92323
-5.99947
-6.09064
-6.19695
-6.31844
-6.45494
-6.60606
-6.7713
-6.9501
-7.14186
-7.34592
-7.56156
-7.78799
-8.02437
-8.26997
-8.52413
-8.78616
-9.05532
-9.33086
-9.61214
-9.89868
-10.1899
-10.4853
-10.7842
-11.0861
-11.3907
-11.6975
-12.006
-12.3158
-12.6264
-12.9375
-13.2489
-13.5599
-13.8702
-14.1794
-14.4874
-14.7937
-15.0977
-15.3992
-15.6979
-15.9933
-16.2848
-16.5721
-16.8546
-17.1318
-17.403
-17.6676
-17.925
-18.1743
-18.4148
-18.6456
-18.8661
-19.0753
-19.2724
-19.4564
-19.6264
-19.7816
-19.9209
-20.0433
-20.1475
-20.2324
-20.2964
-20.338
-20.3552
-20.3461
-20.3084
-20.2395
-20.1368
-19.9977
-19.8194
-19.5992
-19.3344
-19.0221
-18.6595
-18.2437
-17.7719
-17.2414
-16.6498
-15.9948
-15.2749
-14.4887
-13.6359
-12.7169
-11.733
-10.6865
-9.58099
-8.42109
-7.21261
-5.96248
-4.67862
-3.36981
-2.04555
-0.715823
0.609146
1.91915
3.20425
4.455
5.66267
6.81943
7.91851
8.95435
9.92268
10.8205
11.6463
12.3995
13.0811
13.6931
14.2384
14.7208
15.1447
15.5147
15.8351
16.1102
16.3444
16.5416
16.7043
16.8351
16.937
17.0132
17.0672
17.1018
17.12
17.1243
17.1172
17.1005
17.0762
17.0458
17.0106
16.9718
16.9304
16.8873
16.843
16.7982
16.7533
16.7088
16.6649
16.6219
16.58
16.5393
16.4998
16.4618
16.4252
16.39
16.3563
16.3239
16.293
16.2634
16.2351
16.2081
16.1822
16.1575
16.1339
16.1112
16.0895
16.0687
16.0487
16.0294
16.0109
15.9931
15.976
15.9597
15.9442
15.9296
15.9161
15.9042
15.8943
15.8874
15.8849
15.8893
15.9051
15.941
15.9997
-5.66786
-5.69437
-5.72315
-5.74109
-5.76142
-5.79038
-5.83001
-5.88163
-5.94626
-6.02465
-6.11725
-6.2243
-6.34585
-6.48178
-6.63183
-6.79556
-6.97243
-7.16186
-7.36321
-7.57581
-7.79899
-8.032
-8.27413
-8.52466
-8.78295
-9.04836
-9.32027
-9.59803
-9.88108
-10.1689
-10.461
-10.7569
-11.056
-11.358
-11.6623
-11.9687
-12.2766
-12.5856
-12.8954
-13.2055
-13.5157
-13.8254
-14.1343
-14.4421
-14.7484
-15.0527
-15.3548
-15.6541
-15.9502
-16.2429
-16.5314
-16.8153
-17.0941
-17.3672
-17.6339
-17.8936
-18.1455
-18.3888
-18.6228
-18.8466
-19.0594
-19.2602
-19.4482
-19.6225
-19.7821
-19.926
-20.0533
-20.1627
-20.253
-20.3229
-20.3706
-20.3945
-20.3923
-20.362
-20.3008
-20.2062
-20.0754
-19.9058
-19.6945
-19.439
-19.1365
-18.7842
-18.3793
-17.919
-17.4007
-16.822
-16.1806
-15.4749
-14.7036
-13.8661
-12.9626
-11.9944
-10.9634
-9.87312
-8.72775
-7.53288
-6.29517
-5.02231
-3.7229
-2.4063
-1.0824
0.238579
1.5464
2.83101
4.08283
5.293
6.45354
7.55754
8.59935
9.57469
10.4806
11.3155
12.0792
12.7726
13.398
13.9584
14.4571
14.8983
15.2856
15.6227
15.9138
16.1632
16.3741
16.5495
16.6923
16.8057
16.8928
16.9569
17.0011
17.0281
17.0407
17.0412
17.0315
17.0136
16.9891
16.9593
16.9254
16.8885
16.8493
16.8087
16.7673
16.7254
16.6836
16.6422
16.6015
16.5615
16.5226
16.4848
16.4483
16.413
16.379
16.3463
16.3149
16.2849
16.256
16.2284
16.202
16.1767
16.1525
16.1293
16.107
16.0856
16.0651
16.0453
16.0263
16.008
15.9903
15.9734
15.9571
15.9416
15.927
15.9135
15.9015
15.8914
15.8842
15.881
15.884
15.8965
15.924
15.9565
-5.63128
-5.67096
-5.7158
-5.74741
-5.77881
-5.81733
-5.86531
-5.92408
-5.99466
-6.0778
-6.17404
-6.28366
-6.40678
-6.54333
-6.69315
-6.8559
-7.03116
-7.21841
-7.41709
-7.62661
-7.84634
-8.07565
-8.31389
-8.56044
-8.81466
-9.07597
-9.3438
-9.61757
-9.89675
-10.1809
-10.4694
-10.7619
-11.0579
-11.3569
-11.6586
-11.9626
-12.2684
-12.5756
-12.8839
-13.1929
-13.5021
-13.8112
-14.1198
-14.4275
-14.734
-15.0387
-15.3413
-15.6415
-15.9387
-16.2325
-16.5224
-16.808
-17.0887
-17.3639
-17.633
-17.8953
-18.1501
-18.3966
-18.6341
-18.8617
-19.0786
-19.2838
-19.4765
-19.6557
-19.8205
-19.9699
-20.1029
-20.2184
-20.3152
-20.3918
-20.4468
-20.4784
-20.4844
-20.4627
-20.4106
-20.3253
-20.2041
-20.0442
-19.8428
-19.5972
-19.3046
-18.9624
-18.5676
-18.1175
-17.6094
-17.0408
-16.4096
-15.7139
-14.9524
-14.1245
-13.2302
-12.2706
-11.2476
-10.1643
-9.02501
-7.83506
-6.60105
-5.33061
-4.03234
-2.71565
-1.39052
-0.0673054
1.24356
2.53184
3.7878
5.00241
6.16761
7.27646
8.32337
9.30417
10.2161
11.0579
11.8296
12.5324
13.1688
13.7416
14.2537
14.7083
15.1085
15.458
15.7608
16.0208
16.2413
16.4257
16.577
16.6985
16.7935
16.8651
16.9165
16.9503
16.9693
16.9757
16.9716
16.9588
16.939
16.9136
16.8838
16.8506
16.8149
16.7774
16.7388
16.6996
16.6602
16.6209
16.5821
16.544
16.5067
16.4704
16.4352
16.4011
16.3682
16.3366
16.3061
16.2768
16.2487
16.2218
16.1959
16.1712
16.1474
16.1246
16.1027
16.0816
16.0614
16.0419
16.0231
16.0049
15.9874
15.9705
15.9543
15.9388
15.9241
15.9105
15.8982
15.8877
15.8797
15.8752
15.8757
15.8832
15.9003
15.9109
-5.64079
-5.68848
-5.74418
-5.78647
-5.82703
-5.87392
-5.92981
-5.99593
-6.07317
-6.16215
-6.26329
-6.37685
-6.50292
-6.64147
-6.79235
-6.95528
-7.12993
-7.31588
-7.51265
-7.71972
-7.93656
-8.16262
-8.39732
-8.64011
-8.89045
-9.1478
-9.41161
-9.68139
-9.95666
-10.237
-10.5218
-10.8108
-11.1035
-11.3994
-11.6983
-11.9997
-12.3032
-12.6084
-12.915
-13.2225
-13.5306
-13.8389
-14.1469
-14.4544
-14.7608
-15.0657
-15.3689
-15.6697
-15.9678
-16.2627
-16.5539
-16.841
-17.1234
-17.4005
-17.6718
-17.9365
-18.194
-18.4435
-18.6843
-18.9155
-19.1362
-19.3457
-19.5428
-19.7268
-19.8967
-20.0514
-20.19
-20.3114
-20.4144
-20.4977
-20.5599
-20.599
-20.6132
-20.6002
-20.5572
-20.4816
-20.3704
-20.2207
-20.0296
-19.7944
-19.5123
-19.1804
-18.796
-18.356
-17.8578
-17.2988
-16.6767
-15.9895
-15.2358
-14.4147
-13.5263
-12.5712
-11.5515
-10.4699
-9.3308
-8.13947
-6.90254
-5.62773
-4.32379
-3.00033
-1.66761
-0.336276
0.982958
2.27961
3.54373
4.76619
5.93889
7.05494
8.10894
9.09694
10.0165
10.8665
11.6472
12.3599
13.0069
13.5903
14.1122
14.5757
14.9842
15.3414
15.6512
15.9175
16.1438
16.3335
16.49
16.6166
16.7165
16.7931
16.8492
16.8877
16.9111
16.9218
16.9217
16.9128
16.8967
16.8746
16.848
16.8177
16.7847
16.7498
16.7135
16.6765
16.6391
16.6016
16.5645
16.5279
16.4921
16.4571
16.423
16.39
16.3581
16.3273
16.2976
16.2691
16.2416
16.2153
16.19
16.1657
16.1424
16.12
16.0985
16.0777
16.0577
16.0384
16.0198
16.0018
15.9844
15.9676
15.9514
15.9358
15.921
15.9071
15.8944
15.8832
15.874
15.8677
15.865
15.8666
15.8733
15.8658
-5.69818
-5.74896
-5.81029
-5.85973
-5.90684
-5.95981
-6.0215
-6.09316
-6.17556
-6.2692
-6.37438
-6.49126
-6.61989
-6.76021
-6.91208
-7.07525
-7.24943
-7.43425
-7.62931
-7.83419
-8.0484
-8.27146
-8.5029
-8.74222
-8.98895
-9.24258
-9.50266
-9.76873
-10.0404
-10.3171
-10.5985
-10.8843
-11.1739
-11.4671
-11.7633
-12.0624
-12.3638
-12.6672
-12.9723
-13.2786
-13.5858
-13.8935
-14.2012
-14.5086
-14.8153
-15.1208
-15.4247
-15.7265
-16.0259
-16.3222
-16.6151
-16.904
-17.1885
-17.4678
-17.7415
-18.0089
-18.2694
-18.5221
-18.7664
-19.0014
-19.2263
-19.4401
-19.642
-19.831
-20.0061
-20.1664
-20.3108
-20.4383
-20.5478
-20.6379
-20.7072
-20.754
-20.7763
-20.7718
-20.738
-20.672
-20.5709
-20.4315
-20.2509
-20.0264
-19.7551
-19.434
-19.0603
-18.6309
-18.1429
-17.5936
-16.9806
-16.3016
-15.5551
-14.7399
-13.8559
-12.9036
-11.8848
-10.8023
-9.66012
-8.46382
-7.22012
-5.9369
-4.62313
-3.28876
-1.94441
-0.601097
0.73014
2.03857
3.31408
4.5475
5.73075
6.85704
7.92117
8.91943
9.8495
10.7104
11.5024
12.2261
12.8831
13.475
14.0044
14.4744
14.8888
15.2512
15.5657
15.836
16.066
16.2591
16.419
16.5489
16.6523
16.7323
16.7919
16.8338
16.8606
16.8745
16.8776
16.8718
16.8585
16.8393
16.8153
16.7875
16.7569
16.7241
16.6899
16.6547
16.6191
16.5833
16.5477
16.5125
16.4779
16.4441
16.4111
16.3791
16.3481
16.3181
16.2892
16.2614
16.2346
16.2088
16.1841
16.1602
16.1374
16.1153
16.0941
16.0737
16.054
16.0349
16.0165
15.9987
15.9813
15.9646
15.9484
15.9327
15.9177
15.9034
15.8901
15.878
15.8674
15.8588
15.8524
15.8481
15.8448
15.8223
-5.7925
-5.84175
-5.90342
-5.95629
-6.00733
-6.06409
-6.12946
-6.20466
-6.29041
-6.38711
-6.49496
-6.61404
-6.74435
-6.88577
-7.03815
-7.20126
-7.37483
-7.55851
-7.75196
-7.9548
-8.16661
-8.38697
-8.61547
-8.85168
-9.09516
-9.34547
-9.60221
-9.865
-10.1334
-10.407
-10.6854
-10.9683
-11.2553
-11.5461
-11.8401
-12.1372
-12.437
-12.739
-13.0429
-13.3484
-13.6551
-13.9625
-14.2703
-14.578
-14.8853
-15.1917
-15.4968
-15.8
-16.101
-16.3992
-16.6942
-16.9855
-17.2724
-17.5544
-17.831
-18.1016
-18.3654
-18.6218
-18.8699
-19.1091
-19.3385
-19.5571
-19.7642
-19.9586
-20.1395
-20.3058
-20.4566
-20.5907
-20.7071
-20.8044
-20.8812
-20.9359
-20.9665
-20.9708
-20.9461
-20.8897
-20.7986
-20.6696
-20.4996
-20.286
-20.0257
-19.7157
-19.353
-18.9345
-18.4571
-17.9178
-17.314
-16.6434
-15.904
-15.0944
-14.2143
-13.264
-12.245
-11.16
-10.0131
-8.80997
-7.55741
-6.26353
-4.93761
-3.58994
-2.23153
-0.87378
0.471956
1.79478
3.08447
4.3318
5.52879
6.66869
7.7463
8.75802
9.7014
10.5752
11.3791
12.113
12.7785
13.3776
13.9133
14.3887
14.8076
15.174
15.4918
15.7651
15.9977
16.1933
16.3556
16.488
16.594
16.6767
16.739
16.7836
16.8132
16.8299
16.8358
16.8326
16.822
16.8052
16.7836
16.7581
16.7296
16.6989
16.6666
16.6332
16.5992
16.565
16.5309
16.497
16.4637
16.431
16.3991
16.368
16.3379
16.3088
16.2806
16.2534
16.2273
16.2021
16.1779
16.1545
16.1321
16.1105
16.0896
16.0695
16.0501
16.0313
16.013
15.9953
15.9781
15.9614
15.9451
15.9293
15.9141
15.8994
15.8854
15.8722
15.86
15.8489
15.8387
15.8284
15.8162
15.7815
-5.90812
-5.95254
-6.0106
-6.06379
-6.11647
-6.17505
-6.24223
-6.3192
-6.40661
-6.50481
-6.61393
-6.73401
-6.86495
-7.00664
-7.15889
-7.32146
-7.49409
-7.67648
-7.86828
-8.06916
-8.27875
-8.49668
-8.72258
-8.95604
-9.1967
-9.44418
-9.69809
-9.95808
-10.2238
-10.4948
-10.7708
-11.0514
-11.3364
-11.6252
-11.9177
-12.2134
-12.5121
-12.8132
-13.1166
-13.4218
-13.7284
-14.0361
-14.3444
-14.653
-14.9614
-15.2692
-15.5758
-15.881
-16.1841
-16.4847
-16.7822
-17.0762
-17.3661
-17.6514
-17.9313
-18.2055
-18.4731
-18.7335
-18.986
-19.2297
-19.464
-19.6878
-19.9004
-20.1007
-20.2877
-20.4606
-20.6182
-20.7595
-20.8832
-20.9882
-21.073
-21.136
-21.1752
-21.1884
-21.1731
-21.1263
-21.0452
-20.9265
-20.7673
-20.5647
-20.3157
-20.0171
-19.6658
-19.2585
-18.792
-18.2631
-17.669
-17.0069
-16.2748
-15.471
-14.5947
-13.6461
-12.6265
-11.5385
-10.3862
-9.17535
-7.91295
-6.60731
-5.26799
-3.90557
-2.53144
-1.15738
0.204965
1.54468
2.85143
4.11575
5.32966
6.48631
7.58022
8.6077
9.56572
10.4523
11.267
12.0101
12.6834
13.2891
13.8301
14.3101
14.7328
15.1023
15.4228
15.6984
15.933
16.1306
16.2948
16.4293
16.5375
16.6224
16.6871
16.7342
16.7663
16.7855
16.7939
16.7933
16.7851
16.7707
16.7514
16.7281
16.7017
16.673
16.6426
16.611
16.5787
16.546
16.5133
16.4809
16.4488
16.4172
16.3864
16.3564
16.3272
16.2989
16.2715
16.245
16.2195
16.195
16.1713
16.1485
16.1265
16.1053
16.0848
16.0651
16.0459
16.0274
16.0094
15.9918
15.9747
15.958
15.9417
15.9258
15.9102
15.895
15.8802
15.8659
15.852
15.8383
15.8242
15.8083
15.7881
15.7434
-6.02944
-6.06704
-6.11884
-6.16982
-6.22213
-6.28079
-6.34816
-6.42534
-6.51295
-6.61125
-6.72036
-6.84026
-6.97084
-7.11195
-7.26338
-7.4249
-7.59624
-7.7771
-7.96718
-8.16615
-8.37368
-8.58943
-8.81304
-9.04418
-9.28252
-9.52768
-9.77931
-10.0371
-10.3007
-10.5698
-10.8441
-11.1232
-11.4067
-11.6945
-11.986
-12.2811
-12.5793
-12.8803
-13.1837
-13.4893
-13.7966
-14.1052
-14.4147
-14.7247
-15.0348
-15.3445
-15.6534
-15.961
-16.2668
-16.5702
-16.8709
-17.1682
-17.4616
-17.7504
-18.0343
-18.3125
-18.5843
-18.8492
-19.1063
-19.355
-19.5945
-19.8238
-20.0422
-20.2486
-20.4422
-20.6218
-20.7866
-20.9353
-21.0668
-21.1799
-21.273
-21.3445
-21.3926
-21.415
-21.409
-21.3719
-21.3008
-21.1925
-21.0441
-20.8526
-20.6151
-20.3282
-19.9885
-19.5928
-19.1376
-18.6195
-18.0353
-17.3822
-16.6576
-15.8597
-14.9875
-14.0408
-13.0207
-11.9297
-10.7719
-9.55315
-8.28066
-6.96295
-5.60976
-4.23185
-2.84091
-1.44916
-0.0684456
1.29023
2.61626
3.89974
5.13264
6.30794
7.41941
8.46263
9.4345
10.3332
11.1582
11.9102
12.5909
13.2027
13.7488
14.2329
14.6589
15.0312
15.354
15.6315
15.868
16.0673
16.2333
16.3697
16.4798
16.5669
16.6338
16.6833
16.7179
16.7396
16.7505
16.7523
16.7466
16.7346
16.7176
16.6966
16.6724
16.6457
16.6172
16.5875
16.5569
16.5259
16.4947
16.4636
16.4328
16.4025
16.3728
16.3438
16.3156
16.2882
16.2617
16.236
16.2112
16.1873
16.1642
16.142
16.1205
16.0998
16.0797
16.0603
16.0415
16.0233
16.0055
15.9881
15.9712
15.9545
15.9381
15.922
15.9061
15.8903
15.8747
15.8592
15.8434
15.8271
15.8093
15.7882
15.761
15.7082
-6.14202
-6.17179
-6.21557
-6.26229
-6.31248
-6.36975
-6.43601
-6.51219
-6.59881
-6.69611
-6.80416
-6.92295
-7.05232
-7.19215
-7.34218
-7.50221
-7.67195
-7.85112
-8.03942
-8.23656
-8.44221
-8.65605
-8.87777
-9.10705
-9.34355
-9.58696
-9.83697
-10.0933
-10.3555
-10.6234
-10.8967
-11.1749
-11.4579
-11.7453
-12.0367
-12.3319
-12.6304
-12.9321
-13.2364
-13.5431
-13.8517
-14.162
-14.4733
-14.7855
-15.098
-15.4103
-15.722
-16.0326
-16.3416
-16.6485
-16.9528
-17.2539
-17.5513
-17.8443
-18.1325
-18.4152
-18.6917
-18.9613
-19.2235
-19.4775
-19.7224
-19.9575
-20.1818
-20.3946
-20.5948
-20.7814
-20.9534
-21.1097
-21.2492
-21.3704
-21.472
-21.5522
-21.6092
-21.6408
-21.6442
-21.6168
-21.5554
-21.4573
-21.3196
-21.1391
-20.9129
-20.6376
-20.3097
-19.9255
-19.4815
-18.974
-18.3997
-17.7555
-17.0385
-16.2465
-15.3784
-14.4337
-13.4133
-12.3197
-11.1568
-9.93049
-8.64834
-7.31902
-5.95245
-4.55942
-3.1518
-1.74228
-0.343044
1.03483
2.38062
3.68391
4.93578
6.12883
7.25681
8.31505
9.30031
10.2108
11.046
11.8066
12.4945
13.1123
13.6634
14.1515
14.5809
14.956
15.2811
15.5607
15.799
16.0002
16.1681
16.3065
16.4187
16.5081
16.5774
16.6293
16.6664
16.6907
16.7042
16.7087
16.7055
16.6961
16.6815
16.6628
16.6409
16.6164
16.59
16.5622
16.5334
16.5041
16.4746
16.445
16.4156
16.3866
16.3582
16.3303
16.3031
16.2767
16.251
16.2262
16.2022
16.1789
16.1565
16.1349
16.114
16.0938
16.0742
16.0552
16.0368
16.0189
16.0014
15.9842
15.9674
15.9508
15.9343
15.918
15.9018
15.8855
15.869
15.8521
15.8346
15.8157
15.7943
15.7684
15.7351
15.6757
-6.23305
-6.25473
-6.28959
-6.33054
-6.3773
-6.4321
-6.4963
-6.57059
-6.65539
-6.75085
-6.85711
-6.97408
-7.10164
-7.23964
-7.38786
-7.54608
-7.71401
-7.89141
-8.07798
-8.2734
-8.47741
-8.6897
-8.90994
-9.13781
-9.37306
-9.61538
-9.86439
-10.1199
-10.3815
-10.649
-10.922
-11.2003
-11.4835
-11.7713
-12.0634
-12.3595
-12.6592
-12.9623
-13.2683
-13.5768
-13.8876
-14.2002
-14.5142
-14.8292
-15.1447
-15.4602
-15.7754
-16.0897
-16.4025
-16.7134
-17.0219
-17.3273
-17.6292
-17.9269
-18.2198
-18.5074
-18.7889
-19.0638
-19.3313
-19.5908
-19.8414
-20.0824
-20.3129
-20.532
-20.7389
-20.9325
-21.1117
-21.2755
-21.4228
-21.552
-21.6619
-21.7507
-21.8165
-21.8569
-21.8694
-21.8511
-21.7991
-21.7105
-21.5827
-21.4126
-21.197
-20.9326
-20.6155
-20.242
-19.8083
-19.3108
-18.7457
-18.1096
-17.3995
-16.6132
-15.7491
-14.8066
-13.7865
-12.6911
-11.5243
-10.2921
-9.00202
-7.663
-6.28503
-4.879
-3.45674
-2.03104
-0.614544
0.781048
2.14461
3.46559
4.73469
5.94406
7.08725
8.15939
9.15715
10.0787
10.9236
11.6926
12.3877
13.0117
13.5679
14.0604
14.4935
14.8718
15.1997
15.4819
15.7226
15.9261
16.0964
16.2372
16.352
16.4439
16.5159
16.5706
16.6105
16.6377
16.6541
16.6614
16.661
16.6543
16.6424
16.6263
16.6068
16.5846
16.5604
16.5347
16.508
16.4805
16.4527
16.4248
16.3969
16.3693
16.3422
16.3155
16.2895
16.2641
16.2394
16.2155
16.1923
16.1699
16.1482
16.1272
16.1069
16.0873
16.0683
16.0498
16.0318
16.0142
15.997
15.9801
15.9634
15.9469
15.9304
15.9139
15.8973
15.8804
15.8631
15.8449
15.8256
15.8042
15.7795
15.7492
15.7106
15.6458
-6.29273
-6.30639
-6.33218
-6.36659
-6.40908
-6.4607
-6.52221
-6.59403
-6.6764
-6.76951
-6.87345
-6.98811
-7.11344
-7.24929
-7.39543
-7.55166
-7.71774
-7.89338
-8.07832
-8.27229
-8.47495
-8.68603
-8.90526
-9.13231
-9.36685
-9.6087
-9.85746
-10.1128
-10.3746
-10.6424
-10.916
-11.1951
-11.4793
-11.7684
-12.062
-12.3598
-12.6615
-12.9668
-13.2752
-13.5865
-13.9001
-14.2158
-14.5331
-14.8515
-15.1707
-15.4901
-15.8094
-16.1278
-16.445
-16.7604
-17.0736
-17.3838
-17.6905
-17.9932
-18.2913
-18.5841
-18.871
-19.1513
-19.4244
-19.6895
-19.9459
-20.1928
-20.4294
-20.6549
-20.8682
-21.0685
-21.2547
-21.4256
-21.5802
-21.7171
-21.8347
-21.9315
-22.0052
-22.0538
-22.0745
-22.0644
-22.0206
-21.9404
-21.8214
-21.6604
-21.4541
-21.1991
-20.8916
-20.5276
-20.1032
-19.6146
-19.0578
-18.4294
-17.7261
-16.9455
-16.0858
-15.1466
-14.1282
-13.033
-11.8647
-10.629
-9.33368
-7.98749
-6.60055
-5.18398
-3.74977
-2.31067
-0.879614
0.531091
1.9098
3.24572
4.52926
5.7523
6.90827
7.99221
9.00074
9.93203
10.7857
11.5626
12.2647
12.8948
13.4566
13.954
14.3916
14.7739
15.1055
15.3911
15.6352
15.8419
16.0154
16.1593
16.2773
16.3725
16.4478
16.5058
16.5491
16.5795
16.5992
16.6097
16.6124
16.6088
16.5998
16.5865
16.5696
16.55
16.5283
16.5049
16.4803
16.4548
16.4289
16.4027
16.3765
16.3505
16.3248
16.2994
16.2746
16.2504
16.2268
16.2039
16.1816
16.1601
16.1392
16.119
16.0994
16.0804
16.062
16.044
16.0265
16.0093
15.9924
15.9758
15.9593
15.9428
15.9263
15.9097
15.8928
15.8753
15.8571
15.8377
15.8166
15.7928
15.765
15.7308
15.6875
15.6184
-6.31449
-6.32082
-6.33812
-6.36576
-6.40346
-6.45142
-6.50977
-6.57862
-6.65812
-6.74843
-6.8496
-6.96156
-7.08433
-7.21771
-7.36157
-7.51568
-7.67984
-7.85379
-8.03725
-8.22993
-8.43159
-8.6419
-8.86057
-9.08734
-9.32185
-9.56387
-9.81307
-10.0692
-10.3319
-10.6009
-10.8759
-11.1566
-11.4427
-11.7339
-12.0299
-12.3303
-12.6348
-12.943
-13.2546
-13.5693
-13.8865
-14.2059
-14.5271
-14.8497
-15.1731
-15.4969
-15.8206
-16.1437
-16.4657
-16.786
-17.1041
-17.4194
-17.7313
-18.0393
-18.3427
-18.6408
-18.9332
-19.219
-19.4976
-19.7683
-20.0304
-20.2831
-20.5256
-20.7571
-20.9766
-21.1832
-21.3758
-21.5533
-21.7147
-21.8584
-21.983
-22.0869
-22.1678
-22.2235
-22.2513
-22.2484
-22.2118
-22.139
-22.0275
-21.8745
-21.6765
-21.43
-21.1312
-20.776
-20.3603
-19.8802
-19.3316
-18.7109
-18.0146
-17.2401
-16.3857
-15.4505
-14.4351
-13.3414
-12.1731
-10.9356
-9.63641
-8.28446
-6.89015
-5.46491
-4.02107
-2.5716
-1.12959
0.292264
1.68199
3.0286
4.32237
5.55509
6.72015
7.81258
8.82907
9.76786
10.6286
11.4122
12.1207
12.7569
13.3245
13.8276
14.2705
14.6578
14.9944
15.2847
15.5333
15.7445
15.9223
16.0705
16.1927
16.292
16.3714
16.4336
16.4807
16.5151
16.5386
16.5527
16.559
16.5588
16.5531
16.5429
16.529
16.5123
16.4932
16.4723
16.45
16.4268
16.403
16.3787
16.3543
16.33
16.3058
16.2819
16.2585
16.2355
16.2131
16.1913
16.17
16.1495
16.1295
16.1101
16.0913
16.0731
16.0552
16.0378
16.0208
16.0041
15.9876
15.9712
15.955
15.9387
15.9222
15.9055
15.8882
15.8702
15.8511
15.8305
15.8077
15.7817
15.751
15.7134
15.666
15.5933
-6.29563
-6.29584
-6.30563
-6.32665
-6.35922
-6.40307
-6.45777
-6.52317
-6.5993
-6.68634
-6.78429
-6.89318
-7.01301
-7.14362
-7.28497
-7.43682
-7.599
-7.77126
-7.95335
-8.145
-8.34591
-8.55582
-8.77437
-9.00133
-9.23632
-9.47909
-9.72933
-9.98672
-10.251
-10.5218
-10.7989
-11.0819
-11.3706
-11.6646
-11.9636
-12.2672
-12.5752
-12.8871
-13.2025
-13.5212
-13.8426
-14.1664
-14.4922
-14.8194
-15.1477
-15.4764
-15.8052
-16.1335
-16.4608
-16.7864
-17.1099
-17.4307
-17.7482
-18.0617
-18.3707
-18.6744
-18.9724
-19.2638
-19.5482
-19.8246
-20.0924
-20.3509
-20.5993
-20.8366
-21.0621
-21.2748
-21.4735
-21.6573
-21.8251
-21.9752
-22.1063
-22.2166
-22.3042
-22.3663
-22.4005
-22.4041
-22.374
-22.3079
-22.2034
-22.0576
-21.8671
-21.6285
-21.3376
-20.9905
-20.5829
-20.1105
-19.5693
-18.9552
-18.265
-17.4957
-16.6454
-15.7132
-14.6996
-13.6065
-12.4375
-11.1982
-9.89595
-8.5398
-7.14035
-5.70932
-4.25934
-2.80356
-1.35527
0.0726652
1.46811
2.82001
4.11866
5.35589
6.5252
7.62176
8.6424
9.58549
10.4508
11.2393
11.953
12.5948
13.1682
13.6773
14.1264
14.52
14.8628
15.1593
15.4139
15.631
15.8146
15.9685
16.0961
16.2008
16.2853
16.3524
16.4044
16.4435
16.4713
16.4898
16.5002
16.5038
16.5018
16.4952
16.4847
16.471
16.4549
16.4367
16.4171
16.3963
16.3747
16.3526
16.3302
16.3077
16.2853
16.263
16.241
16.2194
16.1983
16.1777
16.1576
16.1381
16.1192
16.1007
16.0828
16.0652
16.0481
16.0314
16.0149
15.9987
15.9826
15.9666
15.9506
15.9345
15.9181
15.9012
15.8837
15.8652
15.8454
15.8236
15.7993
15.7712
15.7378
15.6971
15.6463
15.5706
-6.23865
-6.23351
-6.23644
-6.25082
-6.27771
-6.31676
-6.36712
-6.42839
-6.50055
-6.58377
-6.67804
-6.78348
-6.90004
-7.02774
-7.16643
-7.316
-7.47622
-7.6469
-7.82777
-8.01859
-8.21902
-8.42882
-8.6476
-8.87514
-9.11112
-9.3552
-9.6071
-9.86643
-10.133
-10.4063
-10.6863
-10.9724
-11.2644
-11.562
-11.8647
-12.1724
-12.4845
-12.8008
-13.1209
-13.4442
-13.7706
-14.0994
-14.4303
-14.7628
-15.0964
-15.4306
-15.7649
-16.0988
-16.4317
-16.7631
-17.0924
-17.419
-17.7423
-18.0617
-18.3765
-18.6862
-18.99
-19.2874
-19.5776
-19.86
-20.1337
-20.3982
-20.6525
-20.8957
-21.1272
-21.3459
-21.5508
-21.7406
-21.9145
-22.0708
-22.2079
-22.3242
-22.4178
-22.4858
-22.5256
-22.5346
-22.51
-22.4495
-22.3509
-22.211
-22.0267
-21.7942
-21.5095
-21.1685
-20.7669
-20.3001
-19.7641
-19.1547
-18.4685
-17.7024
-16.8544
-15.9237
-14.9106
-13.8172
-12.6472
-11.4064
-10.102
-8.74354
-7.3416
-5.9082
-4.45619
-2.99889
-1.54966
-0.121434
1.27368
2.62472
3.92214
5.15799
6.32601
7.42165
8.44196
9.38552
10.2522
11.0432
11.7605
12.4068
12.9857
13.501
13.9569
14.3578
14.708
15.0122
15.2745
15.4991
15.6901
15.8512
15.9857
16.097
16.188
16.2612
16.319
16.3636
16.3967
16.4201
16.4353
16.4434
16.4456
16.4429
16.4361
16.426
16.4131
16.3981
16.3813
16.3632
16.3441
16.3244
16.3042
16.2837
16.2631
16.2425
16.2222
16.2021
16.1824
16.1632
16.1444
16.1261
16.1082
16.0908
16.0737
16.057
16.0406
16.0246
16.0087
15.9931
15.9775
15.9619
15.9463
15.9304
15.9141
15.8972
15.8794
15.8605
15.8399
15.8171
15.7913
15.7613
15.7256
15.6821
15.6283
15.5502
-6.15089
-6.14189
-6.13958
-6.148
-6.16894
-6.20243
-6.24756
-6.30378
-6.37116
-6.44978
-6.53975
-6.64118
-6.75405
-6.87838
-7.01412
-7.16119
-7.31937
-7.48847
-7.66823
-7.85837
-8.0586
-8.2686
-8.48806
-8.71662
-8.95395
-9.1997
-9.45358
-9.71523
-9.98435
-10.2606
-10.5436
-10.8331
-11.1287
-11.4301
-11.7369
-12.0488
-12.3654
-12.6863
-13.0111
-13.3394
-13.6708
-14.0049
-14.3412
-14.6791
-15.0183
-15.3582
-15.6983
-16.038
-16.3769
-16.7142
-17.0495
-17.3821
-17.7114
-18.0368
-18.3577
-18.6734
-18.9833
-19.2867
-19.5829
-19.8712
-20.151
-20.4214
-20.6816
-20.9308
-21.1682
-21.3928
-21.6035
-21.7991
-21.9786
-22.1405
-22.2832
-22.4047
-22.5032
-22.576
-22.6204
-22.6334
-22.613
-22.5569
-22.4628
-22.3274
-22.1475
-21.9194
-21.6388
-21.3017
-20.9035
-20.4399
-19.9065
-19.2992
-18.6144
-17.8492
-17.0015
-16.0705
-15.0567
-13.9623
-12.7913
-11.5496
-10.2448
-8.88645
-7.48543
-6.05393
-4.60494
-3.15184
-1.70796
-0.286108
1.10179
2.44504
3.73444
4.96242
6.12312
7.21233
8.22746
9.16733
10.032
10.8228
11.5415
12.1911
12.7747
13.2961
13.7592
14.1682
14.5271
14.8403
15.1118
15.3457
15.5458
15.7157
15.8588
15.9783
16.0771
16.1577
16.2226
16.2738
16.3132
16.3425
16.3631
16.3764
16.3835
16.3853
16.3827
16.3765
16.3674
16.3558
16.3422
16.3271
16.3108
16.2937
16.2759
16.2576
16.2391
16.2205
16.2019
16.1835
16.1655
16.1478
16.1304
16.1134
16.0967
16.0803
16.0642
16.0484
16.0329
16.0175
16.0024
15.9874
15.9723
15.9573
15.942
15.9264
15.9102
15.8933
15.8754
15.8561
15.8348
15.8111
15.784
15.7523