/*--------------------------------*- C++ -*----------------------------------*\
| =========                 |                                                 |
| \\      /  F ield         | OpenFOAM: The Open Source CFD Toolbox           |
|  \\    /   O peration     | Version:  plus                                  |
|   \\  /    A nd           | Website:  www.openfoam.com                      |
|    \\/     M anipulation  |                                                 |
\*---------------------------------------------------------------------------*/
FoamFile
{
    version     2.0;
    format      ascii;
    class       surfaceScalarField;
    location    "50";
    object      phi;
}
// * * * * * * * * * * * * * * * * * * * * * * * * * * * * * * * * * * * * * //

dimensions      [0 3 -1 0 0 0 0];
oriented        oriented;


internalField   nonuniform List<scalar> 
24170
(
3.13255e-06
5.5856e-08
3.05773e-06
7.48173e-08
2.99743e-06
6.02981e-08
2.93704e-06
6.03917e-08
2.87866e-06
5.83832e-08
2.82373e-06
5.49301e-08
2.77242e-06
5.1308e-08
2.72452e-06
4.79021e-08
2.67972e-06
4.47951e-08
2.63773e-06
4.19992e-08
2.59821e-06
3.95124e-08
2.56088e-06
3.73342e-08
2.52541e-06
3.54735e-08
2.49144e-06
3.3962e-08
2.45855e-06
3.28922e-08
2.42595e-06
3.26029e-08
2.3906e-06
3.53468e-08
4.17318e-08
2.34887e-06
3.44231e-06
3.07983e-08
3.43036e-06
8.67593e-08
3.41384e-06
7.68246e-08
3.39737e-06
7.6861e-08
3.37951e-06
7.62416e-08
3.36064e-06
7.38047e-08
3.34108e-06
7.08678e-08
3.32101e-06
6.7965e-08
3.30058e-06
6.5231e-08
3.27987e-06
6.27074e-08
3.25896e-06
6.04264e-08
3.23786e-06
5.84304e-08
3.21655e-06
5.67828e-08
3.19492e-06
5.55889e-08
3.17276e-06
5.50569e-08
3.14968e-06
5.56854e-08
3.12654e-06
5.84784e-08
6.18008e-08
3.10648e-06
3.66019e-06
3.31271e-08
3.66917e-06
7.77746e-08
3.67018e-06
7.58135e-08
3.67107e-06
7.59759e-08
3.67074e-06
7.65703e-08
3.66897e-06
7.55718e-08
3.66601e-06
7.38264e-08
3.66205e-06
7.19296e-08
3.6572e-06
7.00839e-08
3.65154e-06
6.83693e-08
3.64511e-06
6.68498e-08
3.63794e-06
6.56013e-08
3.63e-06
6.47247e-08
3.62122e-06
6.43682e-08
3.6115e-06
6.47716e-08
3.60087e-06
6.63226e-08
3.58993e-06
6.94209e-08
7.31322e-08
3.57859e-06
3.92509e-06
3.34254e-08
3.9342e-06
6.86651e-08
3.9378e-06
7.22119e-08
3.9405e-06
7.32797e-08
3.94243e-06
7.46357e-08
3.94341e-06
7.45935e-08
3.94359e-06
7.36442e-08
3.94312e-06
7.24049e-08
3.94205e-06
7.11507e-08
3.94042e-06
7.00036e-08
3.93821e-06
6.90528e-08
3.93542e-06
6.83931e-08
3.932e-06
6.81422e-08
3.92791e-06
6.84585e-08
3.92312e-06
6.95644e-08
3.9177e-06
7.17481e-08
3.91186e-06
7.52563e-08
7.97595e-08
3.90523e-06
4.20914e-06
3.14143e-08
4.21651e-06
6.12952e-08
4.2205e-06
6.82161e-08
4.22336e-06
7.04256e-08
4.22569e-06
7.2299e-08
4.22739e-06
7.29021e-08
4.22847e-06
7.25576e-08
4.22903e-06
7.18525e-08
4.22908e-06
7.10992e-08
4.22863e-06
7.04476e-08
4.22768e-06
7.00024e-08
4.22621e-06
6.98681e-08
4.22418e-06
7.01672e-08
4.22159e-06
7.10533e-08
4.21843e-06
7.27202e-08
4.21479e-06
7.53878e-08
4.21083e-06
7.92219e-08
8.40502e-08
4.20654e-06
4.51171e-06
2.87864e-08
4.51799e-06
5.50174e-08
4.52225e-06
6.39595e-08
4.52537e-06
6.73059e-08
4.52799e-06
6.96783e-08
4.53005e-06
7.08414e-08
4.53154e-06
7.10654e-08
4.53251e-06
7.08847e-08
4.53298e-06
7.06252e-08
4.53298e-06
7.04567e-08
4.53248e-06
7.04968e-08
4.53149e-06
7.08567e-08
4.53e-06
7.16589e-08
4.52801e-06
7.30449e-08
4.52555e-06
7.51763e-08
4.52273e-06
7.82125e-08
4.51971e-06
8.22428e-08
8.71056e-08
4.51665e-06
4.8353e-06
2.62048e-08
4.84091e-06
4.94137e-08
4.84533e-06
5.95391e-08
4.8487e-06
6.39335e-08
4.85154e-06
6.68411e-08
4.85383e-06
6.85486e-08
4.85556e-06
6.93341e-08
4.85676e-06
6.96797e-08
4.85748e-06
6.99138e-08
4.85771e-06
7.0222e-08
4.85747e-06
7.07334e-08
4.85677e-06
7.15637e-08
4.85559e-06
7.2831e-08
4.85398e-06
7.46605e-08
4.85198e-06
7.718e-08
4.84969e-06
8.04974e-08
4.84728e-06
8.46527e-08
8.95206e-08
4.84487e-06
5.182e-06
2.37813e-08
5.18704e-06
4.43826e-08
5.19146e-06
5.51118e-08
5.195e-06
6.03972e-08
5.198e-06
6.38414e-08
5.20048e-06
6.60723e-08
5.20241e-06
6.74029e-08
5.20382e-06
6.82686e-08
5.20474e-06
6.89928e-08
5.20519e-06
6.97722e-08
5.20518e-06
7.07437e-08
5.20472e-06
7.20238e-08
5.20383e-06
7.37225e-08
5.20254e-06
7.5946e-08
5.20093e-06
7.87903e-08
5.1991e-06
8.23236e-08
5.1972e-06
8.65561e-08
9.13707e-08
5.19535e-06
5.5536e-06
2.15191e-08
5.5581e-06
3.98833e-08
5.56241e-06
5.0798e-08
5.56603e-06
5.67782e-08
5.56915e-06
6.0719e-08
5.57179e-06
6.34348e-08
5.57391e-06
6.528e-08
5.57553e-06
6.66497e-08
5.57667e-06
6.78544e-08
5.57735e-06
6.90955e-08
5.57758e-06
7.05129e-08
5.57738e-06
7.22195e-08
5.57679e-06
7.43143e-08
5.57585e-06
7.68834e-08
5.57465e-06
7.99954e-08
5.57328e-06
8.36878e-08
5.57189e-06
8.79466e-08
9.26412e-08
5.57062e-06
5.95187e-06
1.94235e-08
5.9559e-06
3.5856e-08
5.96004e-06
4.66595e-08
5.96368e-06
5.31312e-08
5.9669e-06
5.75038e-08
5.96968e-06
6.06544e-08
5.97199e-06
6.29727e-08
5.97382e-06
6.48189e-08
5.97519e-06
6.64846e-08
5.97612e-06
6.81685e-08
5.97662e-06
7.00084e-08
5.97673e-06
7.21104e-08
5.97648e-06
7.45601e-08
5.97594e-06
7.74246e-08
5.97519e-06
8.07486e-08
5.97433e-06
8.45456e-08
5.9735e-06
8.87816e-08
9.33147e-08
5.97282e-06
6.37874e-06
1.7496e-08
6.38236e-06
3.22339e-08
6.3863e-06
4.2717e-08
6.38995e-06
4.94875e-08
6.39324e-06
5.42136e-08
6.39615e-06
5.77429e-08
6.39864e-06
6.04844e-08
6.40069e-06
6.27685e-08
6.40231e-06
6.48637e-08
6.40352e-06
6.69596e-08
6.40434e-06
6.91879e-08
6.4048e-06
7.16445e-08
6.40496e-06
7.44013e-08
6.40488e-06
7.75076e-08
6.40464e-06
8.0988e-08
6.40435e-06
8.48373e-08
6.40412e-06
8.90087e-08
9.336e-08
6.40408e-06
5.74234e-06
1.59909e-08
5.74513e-06
2.9444e-08
5.74831e-06
3.9536e-08
5.75138e-06
4.64198e-08
5.75421e-06
5.13788e-08
5.75677e-06
5.5182e-08
5.75902e-06
5.8237e-08
5.76094e-06
6.08535e-08
5.76252e-06
6.32789e-08
5.76379e-06
6.56909e-08
5.76476e-06
6.82128e-08
5.76548e-06
7.09312e-08
5.76597e-06
7.39057e-08
5.76631e-06
7.7172e-08
5.76656e-06
8.07407e-08
5.7668e-06
8.45946e-08
5.76713e-06
8.86798e-08
9.28583e-08
5.76763e-06
6.99974e-06
1.44032e-08
7.00272e-06
2.64665e-08
7.00621e-06
3.60447e-08
7.0097e-06
4.29269e-08
7.01302e-06
4.80622e-08
7.01609e-06
5.21151e-08
7.01885e-06
5.54742e-08
7.02128e-06
5.84223e-08
7.02338e-06
6.11812e-08
7.02516e-06
6.39119e-08
7.02665e-06
6.67255e-08
7.02788e-06
6.96964e-08
7.02892e-06
7.2871e-08
7.02982e-06
7.62711e-08
7.03066e-06
7.98946e-08
7.03154e-06
8.37144e-08
7.03255e-06
8.76724e-08
9.16386e-08
7.03377e-06
8.53251e-06
1.27382e-08
8.53567e-06
2.33129e-08
8.53948e-06
3.22335e-08
8.54344e-06
3.8965e-08
8.54732e-06
4.41821e-08
8.55101e-06
4.84279e-08
8.55443e-06
5.20522e-08
8.55755e-06
5.53044e-08
8.56035e-06
5.83752e-08
8.56286e-06
6.14036e-08
8.5651e-06
6.44841e-08
8.56712e-06
6.76764e-08
8.56898e-06
7.1013e-08
8.57075e-06
7.45025e-08
8.57251e-06
7.81322e-08
8.57436e-06
8.18691e-08
8.57637e-06
8.56548e-08
8.93711e-08
8.57864e-06
1.0401e-05
1.0988e-08
1.04043e-05
1.9976e-08
1.04085e-05
2.80649e-08
1.0413e-05
3.44579e-08
1.04175e-05
3.96156e-08
1.0422e-05
4.39535e-08
1.04263e-05
4.77637e-08
1.04304e-05
5.12545e-08
1.04342e-05
5.45802e-08
1.04377e-05
5.78524e-08
1.0441e-05
6.11446e-08
1.04442e-05
6.44999e-08
1.04473e-05
6.79362e-08
1.04504e-05
7.14511e-08
1.04535e-05
7.50245e-08
1.04567e-05
7.86206e-08
1.04602e-05
8.2185e-08
8.56138e-08
1.04639e-05
1.26787e-05
9.11788e-09
1.26822e-05
1.63939e-08
1.26869e-05
2.34388e-08
1.26921e-05
2.92605e-08
1.26975e-05
3.41613e-08
1.2703e-05
3.84336e-08
1.27085e-05
4.22982e-08
1.27138e-05
4.59129e-08
1.2719e-05
4.93912e-08
1.27241e-05
5.28121e-08
1.2729e-05
5.62248e-08
1.27338e-05
5.96537e-08
1.27387e-05
6.31034e-08
1.27436e-05
6.6562e-08
1.27486e-05
7.0005e-08
1.27538e-05
7.33976e-08
1.27593e-05
7.66918e-08
7.97991e-08
1.27651e-05
1.54553e-05
7.04214e-09
1.54592e-05
1.24135e-08
1.54645e-05
1.81375e-08
1.54707e-05
2.30957e-08
1.54774e-05
2.7476e-08
1.54844e-05
3.14589e-08
1.54915e-05
3.51846e-08
1.54986e-05
3.87522e-08
1.55058e-05
4.22297e-08
1.5513e-05
4.566e-08
1.55201e-05
4.90654e-08
1.55273e-05
5.2451e-08
1.55346e-05
5.58082e-08
1.55421e-05
5.91183e-08
1.55497e-05
6.23547e-08
1.55576e-05
6.54856e-08
1.55658e-05
6.84711e-08
7.12384e-08
1.55744e-05
1.88401e-05
4.58783e-09
1.88448e-05
7.73387e-09
1.88512e-05
1.17428e-08
1.88588e-05
1.54572e-08
1.88673e-05
1.89772e-08
1.88764e-05
2.23776e-08
1.88859e-05
2.57094e-08
1.88956e-05
2.90054e-08
1.89056e-05
3.22832e-08
1.89157e-05
3.5547e-08
1.89259e-05
3.87903e-08
1.89364e-05
4.19983e-08
1.89471e-05
4.51498e-08
1.8958e-05
4.82196e-08
1.89691e-05
5.11802e-08
1.89806e-05
5.40029e-08
1.89924e-05
5.66548e-08
5.90786e-08
1.90046e-05
2.29665e-05
1.40947e-09
2.29725e-05
1.7834e-09
2.29807e-05
3.47127e-09
2.29908e-05
5.43137e-09
2.30021e-05
7.67235e-09
2.30143e-05
1.01425e-08
2.30272e-05
1.27847e-08
2.30407e-05
1.55551e-08
2.30545e-05
1.84155e-08
2.30688e-05
2.13282e-08
2.30833e-05
2.42558e-08
2.30981e-05
2.71626e-08
2.31133e-05
3.00152e-08
2.31287e-05
3.27824e-08
2.31445e-05
3.54355e-08
2.31605e-05
3.7948e-08
2.31769e-05
4.02933e-08
4.2427e-08
2.31935e-05
1.68133e-05
-1.2322e-09
1.68182e-05
-3.10028e-09
1.6825e-05
-3.33842e-09
1.68333e-05
-2.79474e-09
1.68425e-05
-1.56285e-09
1.68525e-05
1.6813e-10
1.6863e-05
2.25127e-09
1.6874e-05
4.59051e-09
1.68853e-05
7.10904e-09
1.68969e-05
9.7381e-09
1.69087e-05
1.24179e-08
1.69208e-05
1.50992e-08
1.6933e-05
1.77412e-08
1.69455e-05
2.03091e-08
1.69582e-05
2.27735e-08
1.6971e-05
2.51091e-08
1.6984e-05
2.72924e-08
2.92857e-08
1.69972e-05
1.46372e-05
-3.82199e-09
1.4642e-05
-7.9424e-09
1.46487e-05
-1.00776e-08
1.46568e-05
-1.08119e-08
1.46656e-05
-1.04343e-08
1.46751e-05
-9.33172e-09
1.46851e-05
-7.72848e-09
1.46955e-05
-5.75428e-09
1.47061e-05
-3.51937e-09
1.47169e-05
-1.12166e-09
1.4728e-05
1.36081e-09
1.47392e-05
3.86792e-09
1.47506e-05
6.35256e-09
1.47622e-05
8.77673e-09
1.47738e-05
1.1109e-08
1.47856e-05
1.3324e-08
1.47975e-05
1.5399e-08
1.73006e-08
1.48095e-05
1.27426e-05
-6.32634e-09
1.27475e-05
-1.28399e-08
1.27543e-05
-1.68652e-08
1.27621e-05
-1.86389e-08
1.27706e-05
-1.88943e-08
1.27796e-05
-1.82832e-08
1.27889e-05
-1.70598e-08
1.27985e-05
-1.53672e-08
1.28083e-05
-1.33482e-08
1.28183e-05
-1.11247e-08
1.28285e-05
-8.78637e-09
1.28388e-05
-6.39987e-09
1.28491e-05
-4.01711e-09
1.28596e-05
-1.67985e-09
1.28701e-05
5.78759e-10
1.28807e-05
2.73259e-09
1.28913e-05
4.75989e-09
6.63074e-09
1.2902e-05
1.10932e-05
-8.6065e-09
1.10983e-05
-1.78872e-08
1.11052e-05
-2.37956e-08
1.11128e-05
-2.62436e-08
1.11208e-05
-2.68917e-08
1.11291e-05
-2.66333e-08
1.11377e-05
-2.56661e-08
1.11465e-05
-2.41513e-08
1.11555e-05
-2.22738e-08
1.11645e-05
-2.01731e-08
1.11737e-05
-1.79407e-08
1.11829e-05
-1.56421e-08
1.11922e-05
-1.33287e-08
1.12016e-05
-1.10435e-08
1.1211e-05
-8.82151e-09
1.12204e-05
-6.69265e-09
1.12298e-05
-4.68394e-09
-2.83325e-09
1.12393e-05
9.65706e-06
-1.0454e-08
9.66241e-06
-2.32312e-08
9.66944e-06
-3.08324e-08
9.67666e-06
-3.34628e-08
9.68412e-06
-3.43496e-08
9.69184e-06
-3.4349e-08
9.69968e-06
-3.35114e-08
9.70759e-06
-3.20595e-08
9.71555e-06
-3.02364e-08
9.72357e-06
-2.81944e-08
9.73165e-06
-2.60216e-08
9.73979e-06
-2.37781e-08
9.74797e-06
-2.15107e-08
9.75619e-06
-1.92579e-08
9.76442e-06
-1.70521e-08
9.77265e-06
-1.49213e-08
9.78085e-06
-1.28902e-08
-1.09894e-08
9.78901e-06
8.40642e-06
-1.1521e-08
8.41249e-06
-2.93021e-08
8.41938e-06
-3.77246e-08
8.42586e-06
-3.99374e-08
8.43258e-06
-4.10683e-08
8.43954e-06
-4.13111e-08
8.44657e-06
-4.05453e-08
8.45362e-06
-3.91069e-08
8.46068e-06
-3.72925e-08
8.46774e-06
-3.52617e-08
8.47482e-06
-3.31023e-08
8.48192e-06
-3.08729e-08
8.48903e-06
-2.86179e-08
8.49614e-06
-2.63718e-08
8.50325e-06
-2.4163e-08
8.51035e-06
-2.20183e-08
8.51743e-06
-1.99718e-08
-1.81018e-08
8.52454e-06
7.31604e-06
-1.02743e-08
7.32396e-06
-3.72279e-08
7.33061e-06
-4.43692e-08
7.33623e-06
-4.55611e-08
7.34209e-06
-4.69224e-08
7.34807e-06
-4.72988e-08
7.35407e-06
-4.65459e-08
7.36009e-06
-4.51249e-08
7.36614e-06
-4.3338e-08
7.37221e-06
-4.13295e-08
7.37829e-06
-3.91828e-08
7.38437e-06
-3.69579e-08
7.39045e-06
-3.47004e-08
7.39653e-06
-3.24436e-08
7.40257e-06
-3.02101e-08
7.40857e-06
-2.80138e-08
7.41446e-06
-2.58626e-08
-2.37628e-08
7.42012e-06
6.36284e-06
-3.04784e-09
6.37395e-06
-4.8342e-08
6.38066e-06
-5.10707e-08
6.38633e-06
-5.12375e-08
6.39199e-06
-5.25816e-08
6.39728e-06
-5.25922e-08
6.40225e-06
-5.1515e-08
6.40705e-06
-4.99205e-08
6.41176e-06
-4.80532e-08
6.41644e-06
-4.6008e-08
6.4211e-06
-4.38436e-08
6.42575e-06
-4.16088e-08
6.4304e-06
-3.9344e-08
6.43503e-06
-3.70785e-08
6.43965e-06
-3.48289e-08
6.44424e-06
-3.25984e-08
6.44876e-06
-3.03897e-08
-2.82988e-08
6.4533e-06
5.53269e-06
9.7265e-09
5.54419e-06
-5.98416e-08
5.54822e-06
-5.5104e-08
5.55307e-06
-5.6081e-08
5.558e-06
-5.75171e-08
5.56223e-06
-5.68228e-08
5.5658e-06
-5.50835e-08
5.56886e-06
-5.29819e-08
5.57154e-06
-5.07263e-08
5.57391e-06
-4.83846e-08
5.57607e-06
-4.59973e-08
5.57806e-06
-4.35988e-08
5.57993e-06
-4.12172e-08
5.58172e-06
-3.8872e-08
5.58346e-06
-3.65685e-08
5.58515e-06
-3.42861e-08
5.5867e-06
-3.19442e-08
-2.92878e-08
5.58769e-06
4.84994e-06
-1.26045e-08
4.84535e-06
-5.52553e-08
4.83488e-06
-4.46327e-08
4.82648e-06
-4.76765e-08
4.81813e-06
-4.91683e-08
4.80951e-06
-4.82079e-08
4.80067e-06
-4.62405e-08
4.79161e-06
-4.39198e-08
4.78236e-06
-4.14751e-08
4.77298e-06
-3.90083e-08
4.76356e-06
-3.65783e-08
4.75418e-06
-3.42222e-08
4.74493e-06
-3.19622e-08
4.73587e-06
-2.98089e-08
4.72706e-06
-2.7761e-08
4.71857e-06
-2.57974e-08
4.71046e-06
-2.38324e-08
-2.14942e-08
4.70266e-06
4.19007e-06
4.13482e-06
4.09018e-06
4.04251e-06
3.99334e-06
3.94513e-06
3.89889e-06
3.85497e-06
3.8135e-06
3.77449e-06
3.73791e-06
3.70369e-06
3.67172e-06
3.64192e-06
3.61415e-06
3.58836e-06
3.56452e-06
3.54303e-06
4.05534e-08
-4.05534e-08
3.28455e-08
7.70813e-09
-1.71655e-08
5.00112e-08
-9.73448e-08
8.01795e-08
-1.93857e-07
9.65126e-08
-3.00369e-07
1.06512e-07
-4.13938e-07
1.13569e-07
-5.32893e-07
1.18955e-07
-6.56103e-07
1.2321e-07
-7.82715e-07
1.26612e-07
-9.11986e-07
1.29271e-07
-1.04326e-06
1.31272e-07
-1.17595e-06
1.32688e-07
-1.30953e-06
1.33585e-07
-1.44355e-06
1.34023e-07
-1.57761e-06
1.34058e-07
-1.71135e-06
1.3374e-07
-1.84447e-06
1.33114e-07
-1.97669e-06
1.32222e-07
-2.10779e-06
1.31105e-07
-2.23759e-06
1.298e-07
-2.36593e-06
1.28339e-07
-2.49268e-06
1.2675e-07
-2.61774e-06
1.25058e-07
-2.74102e-06
1.23286e-07
-2.86248e-06
1.21456e-07
-2.98207e-06
1.19586e-07
-3.09975e-06
1.17688e-07
-3.21553e-06
1.15775e-07
-3.32939e-06
1.13858e-07
-3.44133e-06
1.11947e-07
-3.55138e-06
1.10048e-07
-3.65955e-06
1.08166e-07
-3.76585e-06
1.06305e-07
-3.87032e-06
1.04467e-07
-3.97298e-06
1.02657e-07
-4.07385e-06
1.00873e-07
-4.17296e-06
9.91158e-08
-4.27035e-06
9.73839e-08
-4.36603e-06
9.56764e-08
-4.46002e-06
9.39917e-08
-4.55234e-06
9.23267e-08
-4.64302e-06
9.0678e-08
-4.73206e-06
8.9043e-08
-4.81948e-06
8.74184e-08
-4.90528e-06
8.58006e-08
-4.98947e-06
8.41858e-08
-5.07204e-06
8.25706e-08
-5.15299e-06
8.0952e-08
-5.23232e-06
7.93266e-08
-5.31001e-06
7.76907e-08
-5.38605e-06
7.60413e-08
-5.46043e-06
7.43753e-08
-5.53311e-06
7.26892e-08
-5.60409e-06
7.09789e-08
-5.67333e-06
6.92403e-08
-5.7408e-06
6.74687e-08
-5.80646e-06
6.56579e-08
-5.87026e-06
6.3801e-08
-5.93215e-06
6.18903e-08
-5.99207e-06
5.99163e-08
-6.04994e-06
5.78687e-08
-6.10567e-06
5.57357e-08
-6.15918e-06
5.35046e-08
-6.21034e-06
5.11625e-08
-6.25903e-06
4.86955e-08
-6.30512e-06
4.60902e-08
-6.34846e-06
4.33334e-08
-6.38887e-06
4.04133e-08
-6.42619e-06
3.73178e-08
-6.46023e-06
3.40362e-08
-6.49078e-06
3.05574e-08
-6.51765e-06
2.68692e-08
-6.54061e-06
2.2956e-08
-6.5594e-06
1.87962e-08
-6.57376e-06
1.43584e-08
-6.58335e-06
9.58904e-09
-6.58779e-06
4.43794e-09
-6.58668e-06
-1.10716e-09
-6.57965e-06
-7.03571e-09
-6.56629e-06
-1.33579e-08
-6.54621e-06
-2.00766e-08
-6.51902e-06
-2.71937e-08
-6.48431e-06
-3.47076e-08
-6.4417e-06
-4.26126e-08
-6.3908e-06
-5.08987e-08
-6.33125e-06
-5.95492e-08
-6.26271e-06
-6.8542e-08
-6.18486e-06
-7.78479e-08
-6.09743e-06
-8.74303e-08
-6.00018e-06
-9.72461e-08
-5.89294e-06
-1.07244e-07
-5.77557e-06
-1.17366e-07
-5.64803e-06
-1.27546e-07
-5.51031e-06
-1.37712e-07
-5.36253e-06
-1.47784e-07
-5.20485e-06
-1.5768e-07
-5.03754e-06
-1.67312e-07
-4.86095e-06
-1.76587e-07
-4.67554e-06
-1.85414e-07
-4.48184e-06
-1.93699e-07
-4.28048e-06
-2.01353e-07
-4.07219e-06
-2.08289e-07
-3.85776e-06
-2.1443e-07
-3.63806e-06
-2.19705e-07
-3.414e-06
-2.24061e-07
-3.18654e-06
-2.27455e-07
-2.95668e-06
-2.29863e-07
-2.7254e-06
-2.31278e-07
-2.49369e-06
-2.31707e-07
-2.26252e-06
-2.31172e-07
-2.03281e-06
-2.29712e-07
-1.80544e-06
-2.27366e-07
-1.58126e-06
-2.24181e-07
-1.36095e-06
-2.2031e-07
-1.14506e-06
-2.15888e-07
-9.3423e-07
-2.10832e-07
-7.29615e-07
-2.04615e-07
-5.30073e-07
-1.99542e-07
-3.30871e-07
-1.99202e-07
-1.2925e-07
-2.0162e-07
7.2101e-08
-2.01351e-07
2.65657e-07
-1.93556e-07
4.46506e-07
-1.80848e-07
6.14082e-07
-1.67576e-07
7.68849e-07
-1.54767e-07
9.11553e-07
-1.42704e-07
1.04299e-06
-1.31439e-07
1.16394e-06
-1.20951e-07
1.27514e-06
-1.11196e-07
1.37727e-06
-1.02126e-07
1.47096e-06
-9.3693e-08
1.55681e-06
-8.58542e-08
1.63538e-06
-7.85706e-08
1.70719e-06
-7.18059e-08
1.77272e-06
-6.55267e-08
1.83242e-06
-5.97019e-08
1.88672e-06
-5.4302e-08
1.93602e-06
-4.92993e-08
1.98069e-06
-4.46678e-08
2.02107e-06
-4.03824e-08
2.05749e-06
-3.64199e-08
2.09025e-06
-3.27582e-08
2.11962e-06
-2.93766e-08
2.14588e-06
-2.62556e-08
2.16925e-06
-2.3377e-08
2.18998e-06
-2.0724e-08
2.20826e-06
-1.82808e-08
2.22429e-06
-1.60327e-08
2.23826e-06
-1.39664e-08
2.25033e-06
-1.20695e-08
2.26066e-06
-1.03307e-08
2.2694e-06
-8.73952e-09
2.27668e-06
-7.28634e-09
2.28265e-06
-5.96235e-09
2.2874e-06
-4.7594e-09
2.29107e-06
-3.66987e-09
2.29376e-06
-2.6867e-09
2.29556e-06
-1.80333e-09
2.29658e-06
-1.01473e-09
2.2969e-06
-3.24403e-10
2.29663e-06
2.77236e-10
2.29581e-06
8.12684e-10
2.29452e-06
1.29146e-09
2.2928e-06
1.71915e-09
2.2907e-06
2.10335e-09
2.28824e-06
2.45557e-09
2.28545e-06
2.79131e-09
2.28232e-06
3.13107e-09
2.27882e-06
3.50281e-09
2.27487e-06
3.94637e-09
2.27035e-06
4.52053e-09
2.26503e-06
5.31591e-09
2.25855e-06
6.47952e-09
2.25029e-06
8.26484e-09
2.23914e-06
1.1148e-08
2.22302e-06
1.61245e-08
2.19745e-06
2.55707e-08
2.15071e-06
4.67381e-08
1.13995e-07
2.03671e-06
-4.72493e-08
6.69609e-09
-1.1625e-07
7.6709e-08
-1.91927e-07
1.25689e-07
-2.73806e-07
1.62058e-07
-3.65364e-07
1.88071e-07
-4.65919e-07
2.07067e-07
-5.73842e-07
2.21492e-07
-6.87636e-07
2.32749e-07
-8.06052e-07
2.41626e-07
-9.28031e-07
2.48591e-07
-1.05271e-06
2.53949e-07
-1.17936e-06
2.57923e-07
-1.30736e-06
2.60689e-07
-1.43618e-06
2.62402e-07
-1.56535e-06
2.63193e-07
-1.69447e-06
2.63182e-07
-1.82321e-06
2.62476e-07
-1.95126e-06
2.6117e-07
-2.07839e-06
2.59351e-07
-2.20439e-06
2.57101e-07
-2.32908e-06
2.5449e-07
-2.45232e-06
2.51584e-07
-2.57401e-06
2.48438e-07
-2.69406e-06
2.45103e-07
-2.81239e-06
2.41623e-07
-2.92897e-06
2.38036e-07
-3.04376e-06
2.34376e-07
-3.15675e-06
2.3067e-07
-3.26791e-06
2.26941e-07
-3.37726e-06
2.23208e-07
-3.4848e-06
2.19487e-07
-3.59054e-06
2.15792e-07
-3.69451e-06
2.12131e-07
-3.79671e-06
2.0851e-07
-3.89718e-06
2.04934e-07
-3.99593e-06
2.01407e-07
-4.09299e-06
1.97929e-07
-4.18837e-06
1.94499e-07
-4.2821e-06
1.91114e-07
-4.3742e-06
1.87773e-07
-4.46468e-06
1.84471e-07
-4.55355e-06
1.81202e-07
-4.64083e-06
1.77961e-07
-4.72653e-06
1.74742e-07
-4.81065e-06
1.71538e-07
-4.89319e-06
1.68341e-07
-4.97415e-06
1.65145e-07
-5.05352e-06
1.61942e-07
-5.1313e-06
1.58726e-07
-5.20746e-06
1.55488e-07
-5.28199e-06
1.52221e-07
-5.35487e-06
1.48918e-07
-5.42606e-06
1.45572e-07
-5.49555e-06
1.42175e-07
-5.56329e-06
1.38717e-07
-5.62924e-06
1.3519e-07
-5.69335e-06
1.31585e-07
-5.75558e-06
1.27889e-07
-5.81587e-06
1.24088e-07
-5.87415e-06
1.20168e-07
-5.93034e-06
1.16111e-07
-5.98437e-06
1.11899e-07
-6.03615e-06
1.07508e-07
-6.08556e-06
1.02916e-07
-6.13249e-06
9.80977e-08
-6.17682e-06
9.30263e-08
-6.21841e-06
8.7675e-08
-6.25709e-06
8.20181e-08
-6.29271e-06
7.60298e-08
-6.32508e-06
6.9685e-08
-6.354e-06
6.29592e-08
-6.37927e-06
5.58285e-08
-6.40067e-06
4.82664e-08
-6.41795e-06
4.0241e-08
-6.43087e-06
3.17131e-08
-6.43914e-06
2.26292e-08
-6.44247e-06
1.29155e-08
-6.44057e-06
2.54138e-09
-6.43314e-06
-8.53313e-09
-6.41983e-06
-2.03516e-08
-6.40025e-06
-3.2933e-08
-6.37404e-06
-4.629e-08
-6.3408e-06
-6.04312e-08
-6.30015e-06
-7.53594e-08
-6.25169e-06
-9.10695e-08
-6.19504e-06
-1.07548e-07
-6.12982e-06
-1.24768e-07
-6.05567e-06
-1.42693e-07
-5.97225e-06
-1.61272e-07
-5.87924e-06
-1.80437e-07
-5.77638e-06
-2.00108e-07
-5.66344e-06
-2.20187e-07
-5.54024e-06
-2.40559e-07
-5.4067e-06
-2.61094e-07
-5.26277e-06
-2.81642e-07
-5.10851e-06
-3.02044e-07
-4.94406e-06
-3.22124e-07
-4.76967e-06
-3.41699e-07
-4.58569e-06
-3.60574e-07
-4.39255e-06
-3.78551e-07
-4.19082e-06
-3.95433e-07
-3.98114e-06
-4.11025e-07
-3.76429e-06
-4.25145e-07
-3.54109e-06
-4.37624e-07
-3.31248e-06
-4.48316e-07
-3.07944e-06
-4.57104e-07
-2.84299e-06
-4.639e-07
-2.60421e-06
-4.68651e-07
-2.36414e-06
-4.71341e-07
-2.12386e-06
-4.71991e-07
-1.88437e-06
-4.70656e-07
-1.64665e-06
-4.67433e-07
-1.41159e-06
-4.62427e-07
-1.18003e-06
-4.55743e-07
-9.5261e-07
-4.47729e-07
-7.29713e-07
-4.38785e-07
-5.11604e-07
-4.28942e-07
-2.96165e-07
-4.20054e-07
-8.33079e-08
-4.12399e-07
1.20998e-07
-4.03508e-07
3.1116e-07
-3.91781e-07
4.86019e-07
-3.7621e-07
6.49483e-07
-3.5702e-07
8.04302e-07
-3.35667e-07
9.50549e-07
-3.13822e-07
1.08811e-06
-2.92325e-07
1.21698e-06
-2.71573e-07
1.33729e-06
-2.5175e-07
1.44927e-06
-2.32935e-07
1.55323e-06
-2.15154e-07
1.64951e-06
-1.98402e-07
1.73847e-06
-1.8266e-07
1.82052e-06
-1.679e-07
1.89603e-06
-1.54087e-07
1.96541e-06
-1.41182e-07
2.02903e-06
-1.29145e-07
2.08726e-06
-1.17933e-07
2.14046e-06
-1.07504e-07
2.18898e-06
-9.78151e-08
2.23313e-06
-8.88226e-08
2.27323e-06
-8.04853e-08
2.30957e-06
-7.27628e-08
2.34243e-06
-6.56158e-08
2.37206e-06
-5.90071e-08
2.39871e-06
-5.29012e-08
2.42259e-06
-4.72644e-08
2.44394e-06
-4.20651e-08
2.46293e-06
-3.72738e-08
2.47976e-06
-3.28628e-08
2.4946e-06
-2.88065e-08
2.50761e-06
-2.50812e-08
2.51894e-06
-2.16652e-08
2.52874e-06
-1.85384e-08
2.53714e-06
-1.56823e-08
2.54426e-06
-1.30797e-08
2.55021e-06
-1.07149e-08
2.55511e-06
-8.57322e-09
2.55907e-06
-6.64075e-09
2.56217e-06
-4.90446e-09
2.56451e-06
-3.35191e-09
2.56615e-06
-1.97139e-09
2.56718e-06
-7.53724e-10
2.56768e-06
3.12598e-10
2.56772e-06
1.25084e-09
2.56736e-06
2.08281e-09
2.56664e-06
2.82518e-09
2.56559e-06
3.50174e-09
2.56424e-06
4.14355e-09
2.56258e-06
4.79114e-09
2.56058e-06
5.49986e-09
2.55818e-06
6.34789e-09
2.55525e-06
7.45025e-09
2.55158e-06
8.98356e-09
2.54683e-06
1.12315e-08
2.54042e-06
1.46773e-08
2.53136e-06
2.02065e-08
2.51789e-06
2.95892e-08
2.49675e-06
4.67168e-08
2.46191e-06
8.15782e-08
1.61349e-07
2.41456e-06
-8.90228e-08
9.5719e-08
-1.76919e-07
1.64605e-07
-2.65287e-07
2.14057e-07
-3.55596e-07
2.52368e-07
-4.49979e-07
2.82454e-07
-5.49077e-07
3.06165e-07
-6.526e-07
3.25015e-07
-7.59933e-07
3.40082e-07
-8.70402e-07
3.52095e-07
-9.83361e-07
3.6155e-07
-1.09822e-06
3.6881e-07
-1.21446e-06
3.7416e-07
-1.33161e-06
3.77839e-07
-1.44926e-06
3.80055e-07
-1.56706e-06
3.80994e-07
-1.6847e-06
3.80821e-07
-1.80191e-06
3.79686e-07
-1.91847e-06
3.77726e-07
-2.03418e-06
3.75063e-07
-2.14889e-06
3.7181e-07
-2.26246e-06
3.68065e-07
-2.3748e-06
3.63918e-07
-2.48581e-06
3.59446e-07
-2.59542e-06
3.54719e-07
-2.7036e-06
3.49796e-07
-2.81029e-06
3.44731e-07
-2.91548e-06
3.39567e-07
-3.01915e-06
3.3434e-07
-3.12129e-06
3.29084e-07
-3.22191e-06
3.23822e-07
-3.321e-06
3.18577e-07
-3.41857e-06
3.13364e-07
-3.51463e-06
3.08195e-07
-3.6092e-06
3.03078e-07
-3.70229e-06
2.9802e-07
-3.79391e-06
2.93024e-07
-3.88407e-06
2.88091e-07
-3.97279e-06
2.83218e-07
-4.06008e-06
2.78403e-07
-4.14594e-06
2.73641e-07
-4.2304e-06
2.68928e-07
-4.31345e-06
2.64255e-07
-4.39511e-06
2.59614e-07
-4.47536e-06
2.54998e-07
-4.55422e-06
2.50396e-07
-4.63168e-06
2.458e-07
-4.70773e-06
2.41198e-07
-4.78237e-06
2.36581e-07
-4.85558e-06
2.31937e-07
-4.92735e-06
2.27257e-07
-4.99766e-06
2.22527e-07
-5.06648e-06
2.17737e-07
-5.13378e-06
2.12876e-07
-5.19953e-06
2.0793e-07
-5.2637e-06
2.02886e-07
-5.32624e-06
1.9773e-07
-5.3871e-06
1.92446e-07
-5.44623e-06
1.87017e-07
-5.50357e-06
1.81423e-07
-5.55904e-06
1.75643e-07
-5.61258e-06
1.69651e-07
-5.6641e-06
1.6342e-07
-5.71351e-06
1.5692e-07
-5.76071e-06
1.50117e-07
-5.80559e-06
1.42974e-07
-5.84802e-06
1.35454e-07
-5.88786e-06
1.27518e-07
-5.92497e-06
1.19124e-07
-5.95917e-06
1.10233e-07
-5.99029e-06
1.00804e-07
-6.01813e-06
9.0797e-08
-6.04247e-06
8.01726e-08
-6.06309e-06
6.88884e-08
-6.07975e-06
5.68984e-08
-6.09219e-06
4.41493e-08
-6.10013e-06
3.05784e-08
-6.10334e-06
1.61166e-08
-6.10149e-06
6.92923e-10
-6.09424e-06
-1.57786e-08
-6.08125e-06
-3.33467e-08
-6.06213e-06
-5.20463e-08
-6.03652e-06
-7.19046e-08
-6.00401e-06
-9.29421e-08
-5.9642e-06
-1.15171e-07
-5.91667e-06
-1.38591e-07
-5.86103e-06
-1.6319e-07
-5.79686e-06
-1.88936e-07
-5.72378e-06
-2.1578e-07
-5.6414e-06
-2.43652e-07
-5.54938e-06
-2.72456e-07
-5.44741e-06
-3.02074e-07
-5.33524e-06
-3.3236e-07
-5.21266e-06
-3.63141e-07
-5.07953e-06
-3.94216e-07
-4.93582e-06
-4.25357e-07
-4.78155e-06
-4.56311e-07
-4.61687e-06
-4.86805e-07
-4.44202e-06
-5.16547e-07
-4.25737e-06
-5.45231e-07
-4.06337e-06
-5.72543e-07
-3.86064e-06
-5.98167e-07
-3.64987e-06
-6.21794e-07
-3.43188e-06
-6.43137e-07
-3.20757e-06
-6.61931e-07
-2.97794e-06
-6.77944e-07
-2.74405e-06
-6.90994e-07
-2.507e-06
-7.00949e-07
-2.26793e-06
-7.07726e-07
-2.02796e-06
-7.11307e-07
-1.78821e-06
-7.11737e-07
-1.54975e-06
-7.09116e-07
-1.31357e-06
-7.03622e-07
-1.08051e-06
-6.95477e-07
-8.51426e-07
-6.84831e-07
-6.26977e-07
-6.72177e-07
-4.07186e-07
-6.58576e-07
-1.91446e-07
-6.44682e-07
1.76601e-08
-6.2916e-07
2.1609e-07
-6.10829e-07
4.0257e-07
-5.89988e-07
5.77231e-07
-5.66442e-07
7.4104e-07
-5.40019e-07
8.95327e-07
-5.11306e-07
1.04099e-06
-4.81326e-07
1.17826e-06
-4.51096e-07
1.30724e-06
-4.21305e-07
1.42804e-06
-3.92371e-07
1.54083e-06
-3.6454e-07
1.64584e-06
-3.37951e-07
1.74337e-06
-3.12678e-07
1.83372e-06
-2.88752e-07
1.91723e-06
-2.66178e-07
1.99427e-06
-2.4494e-07
2.0652e-06
-2.25009e-07
2.13036e-06
-2.06345e-07
2.19012e-06
-1.88902e-07
2.24481e-06
-1.72629e-07
2.29478e-06
-1.57472e-07
2.34034e-06
-1.43374e-07
2.38179e-06
-1.30279e-07
2.41944e-06
-1.18128e-07
2.45354e-06
-1.06867e-07
2.48436e-06
-9.64408e-08
2.51215e-06
-8.67966e-08
2.53714e-06
-7.78843e-08
2.55953e-06
-6.96559e-08
2.57953e-06
-6.20662e-08
2.59733e-06
-5.50726e-08
2.6131e-06
-4.86353e-08
2.62701e-06
-4.27173e-08
2.63921e-06
-3.72844e-08
2.64985e-06
-3.2305e-08
2.65906e-06
-2.77497e-08
2.66697e-06
-2.35918e-08
2.6737e-06
-1.98065e-08
2.67936e-06
-1.63705e-08
2.68405e-06
-1.32625e-08
2.68787e-06
-1.04621e-08
2.69091e-06
-7.9502e-09
2.69327e-06
-5.70811e-09
2.69501e-06
-3.71749e-09
2.69622e-06
-1.96067e-09
2.69695e-06
-4.20264e-10
2.69728e-06
9.25095e-10
2.69726e-06
2.10373e-09
2.69694e-06
3.14742e-09
2.69635e-06
4.09189e-09
2.69551e-06
4.98227e-09
2.69442e-06
5.87727e-09
2.69306e-06
6.8566e-09
2.69138e-06
8.03239e-09
2.68926e-06
9.56854e-09
2.68653e-06
1.17135e-08
2.6829e-06
1.48609e-08
2.67791e-06
1.96655e-08
2.67084e-06
2.72823e-08
2.66055e-06
3.98815e-08
2.64548e-06
6.17839e-08
2.62475e-06
1.02304e-07
1.80122e-07
2.60598e-06
-9.6974e-08
1.92693e-07
-1.94214e-07
2.61845e-07
-2.89477e-07
3.0932e-07
-3.83888e-07
3.46779e-07
-4.79036e-07
3.77601e-07
-5.75809e-07
4.02939e-07
-6.74468e-07
4.23673e-07
-7.74924e-07
4.40538e-07
-8.76941e-07
4.54113e-07
-9.80234e-07
4.64843e-07
-1.08451e-06
4.73083e-07
-1.18947e-06
4.79128e-07
-1.29487e-06
4.83234e-07
-1.40045e-06
4.85632e-07
-1.50598e-06
4.86531e-07
-1.61128e-06
4.86121e-07
-1.71617e-06
4.84577e-07
-1.8205e-06
4.82057e-07
-1.92415e-06
4.78706e-07
-2.02699e-06
4.74654e-07
-2.12895e-06
4.70019e-07
-2.22993e-06
4.64905e-07
-2.32989e-06
4.59404e-07
-2.42877e-06
4.53596e-07
-2.52653e-06
4.47553e-07
-2.62313e-06
4.41336e-07
-2.71856e-06
4.34996e-07
-2.8128e-06
4.28578e-07
-2.90583e-06
4.22117e-07
-2.99765e-06
4.15644e-07
-3.08826e-06
4.09184e-07
-3.17765e-06
4.02754e-07
-3.26583e-06
3.96369e-07
-3.35279e-06
3.9004e-07
-3.43854e-06
3.83771e-07
-3.52308e-06
3.77568e-07
-3.60642e-06
3.71431e-07
-3.68856e-06
3.65357e-07
-3.7695e-06
3.59344e-07
-3.84925e-06
3.53386e-07
-3.9278e-06
3.47476e-07
-4.00515e-06
3.41605e-07
-4.0813e-06
3.35765e-07
-4.15624e-06
3.29944e-07
-4.22998e-06
3.24133e-07
-4.3025e-06
3.18319e-07
-4.37379e-06
3.1249e-07
-4.44384e-06
3.06633e-07
-4.51264e-06
3.00734e-07
-4.58016e-06
2.94781e-07
-4.64639e-06
2.88757e-07
-4.71131e-06
2.82649e-07
-4.77487e-06
2.76441e-07
-4.83706e-06
2.70116e-07
-4.89783e-06
2.63656e-07
-4.95714e-06
2.57042e-07
-5.01495e-06
2.50254e-07
-5.0712e-06
2.43268e-07
-5.12584e-06
2.3606e-07
-5.17879e-06
2.286e-07
-5.23e-06
2.20857e-07
-5.27938e-06
2.12797e-07
-5.32684e-06
2.04379e-07
-5.37228e-06
1.95562e-07
-5.41561e-06
1.86299e-07
-5.45669e-06
1.76539e-07
-5.4954e-06
1.66229e-07
-5.5316e-06
1.55317e-07
-5.56511e-06
1.43744e-07
-5.59576e-06
1.31454e-07
-5.62335e-06
1.18391e-07
-5.64767e-06
1.04495e-07
-5.66849e-06
8.97088e-08
-5.68556e-06
7.39685e-08
-5.69862e-06
5.72075e-08
-5.7074e-06
3.9352e-08
-5.7116e-06
2.03255e-08
-5.71094e-06
3.31645e-11
-5.70508e-06
-2.16419e-08
-5.69366e-06
-4.47666e-08
-5.67631e-06
-6.93934e-08
-5.65265e-06
-9.55674e-08
-5.62227e-06
-1.23325e-07
-5.58475e-06
-1.52691e-07
-5.53966e-06
-1.83676e-07
-5.48658e-06
-2.16269e-07
-5.42508e-06
-2.50439e-07
-5.35473e-06
-2.86126e-07
-5.27514e-06
-3.23242e-07
-5.18593e-06
-3.61666e-07
-5.08677e-06
-4.01241e-07
-4.97736e-06
-4.41773e-07
-4.85746e-06
-4.83031e-07
-4.72694e-06
-5.24741e-07
-4.58571e-06
-5.6659e-07
-4.43379e-06
-6.08228e-07
-4.27132e-06
-6.49275e-07
-4.09854e-06
-6.89326e-07
-3.91582e-06
-7.27955e-07
-3.72363e-06
-7.64725e-07
-3.52261e-06
-7.99188e-07
-3.31349e-06
-8.30913e-07
-3.09713e-06
-8.59501e-07
-2.87448e-06
-8.84585e-07
-2.64658e-06
-9.05838e-07
-2.41456e-06
-9.23014e-07
-2.17957e-06
-9.35941e-07
-1.94279e-06
-9.44506e-07
-1.7054e-06
-9.48695e-07
-1.46855e-06
-9.48591e-07
-1.23332e-06
-9.44346e-07
-1.00072e-06
-9.3622e-07
-7.71555e-07
-9.24642e-07
-5.46638e-07
-9.09748e-07
-3.26196e-07
-8.92619e-07