/*--------------------------------*- C++ -*----------------------------------*\
| =========                 |                                                 |
| \\      /  F ield         | OpenFOAM: The Open Source CFD Toolbox           |
|  \\    /   O peration     | Version:  plus                                  |
|   \\  /    A nd           | Website:  www.openfoam.com                      |
|    \\/     M anipulation  |                                                 |
\*---------------------------------------------------------------------------*/
FoamFile
{
    version     2.0;
    format      ascii;
    class       volVectorField;
    location    "50";
    object      U;
}
// * * * * * * * * * * * * * * * * * * * * * * * * * * * * * * * * * * * * * //

dimensions      [0 1 -1 0 0 0 0];


internalField   nonuniform List<vector> 
12225
(
(9.80087 -1.31155 0)
(9.70292 -0.8212 0)
(9.51519 -0.551252 0)
(9.31126 -0.379756 0)
(9.11928 -0.266282 0)
(8.94103 -0.189087 0)
(8.77474 -0.135217 0)
(8.61933 -0.0968691 0)
(8.47404 -0.0691381 0)
(8.338 -0.0488088 0)
(8.21029 -0.0337137 0)
(8.08994 -0.0223602 0)
(7.97595 -0.0136987 0)
(7.8673 -0.0069663 0)
(7.76276 -0.00156298 0)
(7.66059 0.00314809 0)
(7.55499 0.00905534 0)
(7.46073 -0.0170616 0)
(10.07 0.412613 0)
(10.0569 0.418823 0)
(10.0201 0.347928 0)
(9.96922 0.286058 0)
(9.91651 0.235714 0)
(9.86264 0.195555 0)
(9.80666 0.164248 0)
(9.7487 0.140034 0)
(9.68934 0.12129 0)
(9.62903 0.106744 0)
(9.56808 0.0954519 0)
(9.50662 0.0867255 0)
(9.44463 0.0800764 0)
(9.38193 0.0751917 0)
(9.31807 0.0719663 0)
(9.25235 0.0707295 0)
(9.1847 0.0734347 0)
(9.11438 0.091218 0)
(9.99402 0.0584341 0)
(10.0052 0.0268912 0)
(10.0197 -0.00134115 0)
(10.0239 -0.00585763 0)
(10.0237 -0.000892253 0)
(10.0207 0.00650142 0)
(10.0144 0.0142431 0)
(10.005 0.0215762 0)
(9.99284 0.028213 0)
(9.97842 0.0341193 0)
(9.9619 0.0393928 0)
(9.94337 0.0441955 0)
(9.92279 0.048735 0)
(9.90005 0.0532836 0)
(9.87492 0.0582523 0)
(9.84718 0.0643724 0)
(9.81747 0.0728194 0)
(9.78329 0.0824999 0)
(9.99751 0.0156992 0)
(10.0087 0.0346994 0)
(10.027 0.0440908 0)
(10.0365 0.0541002 0)
(10.0417 0.06209 0)
(10.0451 0.0668569 0)
(10.0466 0.0694008 0)
(10.0462 0.0707643 0)
(10.0442 0.071587 0)
(10.0408 0.0722431 0)
(10.0359 0.0729743 0)
(10.0295 0.0739705 0)
(10.0217 0.0754233 0)
(10.0122 0.0775758 0)
(10.0009 0.0807838 0)
(9.98785 0.085569 0)
(9.97344 0.0924517 0)
(9.95655 0.100485 0)
(10.001 0.0173903 0)
(10.0118 0.0417631 0)
(10.0272 0.0496815 0)
(10.0362 0.0535846 0)
(10.0419 0.0563804 0)
(10.0464 0.0579746 0)
(10.0497 0.0589935 0)
(10.0517 0.0600044 0)
(10.0524 0.0612468 0)
(10.0519 0.0627965 0)
(10.0503 0.0647013 0)
(10.0474 0.06704 0)
(10.0433 0.0699477 0)
(10.0379 0.0736358 0)
(10.031 0.078414 0)
(10.0229 0.0846848 0)
(10.0138 0.0928174 0)
(10.0036 0.102652 0)
(10.0018 0.018895 0)
(10.0115 0.0390522 0)
(10.0246 0.0460349 0)
(10.0334 0.0494778 0)
(10.0394 0.0526651 0)
(10.0444 0.0553255 0)
(10.0484 0.0575736 0)
(10.0511 0.0597081 0)
(10.0527 0.0618989 0)
(10.0533 0.0642406 0)
(10.0527 0.0668313 0)
(10.0511 0.0698031 0)
(10.0483 0.0733325 0)
(10.0445 0.0776498 0)
(10.0395 0.0830473 0)
(10.0336 0.089864 0)
(10.0271 0.0984049 0)
(10.0201 0.108695 0)
(10.0017 0.0175366 0)
(10.01 0.0344792 0)
(10.0215 0.0422311 0)
(10.0301 0.0466671 0)
(10.0363 0.0505805 0)
(10.0415 0.0538804 0)
(10.0457 0.0566321 0)
(10.0487 0.0591352 0)
(10.0507 0.0616238 0)
(10.0517 0.0642589 0)
(10.0517 0.0671838 0)
(10.0507 0.0705534 0)
(10.0488 0.0745472 0)
(10.0459 0.0793789 0)
(10.0421 0.0852987 0)
(10.0377 0.0925746 0)
(10.0327 0.101427 0)
(10.0276 0.111849 0)
(10.0016 0.0157895 0)
(10.0086 0.0307181 0)
(10.0185 0.0391235 0)
(10.0267 0.0442966 0)
(10.033 0.0485793 0)
(10.0381 0.0521788 0)
(10.0424 0.0552298 0)
(10.0456 0.0580381 0)
(10.0479 0.0608593 0)
(10.0492 0.0638726 0)
(10.0496 0.0672269 0)
(10.0492 0.0710718 0)
(10.0479 0.0755731 0)
(10.0458 0.0809187 0)
(10.0429 0.0873164 0)
(10.0396 0.094973 0)
(10.0359 0.104043 0)
(10.0322 0.114505 0)
(10.0014 0.014266 0)
(10.0073 0.0276003 0)
(10.0158 0.0361895 0)
(10.0234 0.0417939 0)
(10.0295 0.0463206 0)
(10.0346 0.0501766 0)
(10.0389 0.0535476 0)
(10.0423 0.0567136 0)
(10.0448 0.0599186 0)
(10.0464 0.0633399 0)
(10.0473 0.067124 0)
(10.0473 0.0714145 0)
(10.0466 0.0763645 0)
(10.0452 0.08214 0)
(10.0432 0.0889129 0)
(10.0408 0.0968417 0)
(10.0383 0.106034 0)
(10.0359 0.116451 0)
(10.0012 0.0128976 0)
(10.0062 0.0248282 0)
(10.0135 0.0333096 0)
(10.0204 0.0391863 0)
(10.0263 0.043935 0)
(10.0313 0.0480467 0)
(10.0355 0.0517368 0)
(10.039 0.0552548 0)
(10.0417 0.0588267 0)
(10.0437 0.0626262 0)
(10.0449 0.0667984 0)
(10.0454 0.0714819 0)
(10.0452 0.0768179 0)
(10.0446 0.0829502 0)
(10.0434 0.0900178 0)
(10.042 0.0981391 0)
(10.0406 0.107383 0)
(10.0393 0.11768 0)
(10.0011 0.0116378 0)
(10.0053 0.0223257 0)
(10.0115 0.0305384 0)
(10.0178 0.0365635 0)
(10.0233 0.0414929 0)
(10.0282 0.045823 0)
(10.0324 0.0497874 0)
(10.036 0.0536124 0)
(10.0389 0.0575068 0)
(10.0411 0.0616394 0)
(10.0427 0.0661519 0)
(10.0437 0.0711749 0)
(10.0441 0.0768347 0)
(10.0442 0.0832521 0)
(10.0439 0.0905352 0)
(10.0434 0.0987678 0)
(10.043 0.107986 0)
(10.0428 0.118096 0)
(10.0009 0.0105585 0)
(10.0045 0.0202565 0)
(10.0099 0.0281409 0)
(10.0157 0.0342044 0)
(10.0209 0.03925 0)
(10.0256 0.0437392 0)
(10.0298 0.0479125 0)
(10.0335 0.0519802 0)
(10.0365 0.0561361 0)
(10.039 0.0605411 0)
(10.0409 0.0653298 0)
(10.0424 0.0706223 0)
(10.0434 0.0765287 0)
(10.0441 0.0831482 0)
(10.0446 0.0905629 0)
(10.045 0.0988291 0)
(10.0455 0.107958 0)
(10.0462 0.117842 0)
(10.0008 0.00956806 0)
(10.0039 0.0183264 0)
(10.0087 0.0258237 0)
(10.0139 0.031832 0)
(10.0189 0.0369348 0)
(10.0235 0.0415351 0)
(10.0277 0.0458692 0)
(10.0314 0.0501332 0)
(10.0346 0.0545045 0)
(10.0374 0.0591325 0)
(10.0397 0.0641421 0)
(10.0417 0.0696409 0)
(10.0433 0.0757228 0)
(10.0446 0.0824668 0)
(10.0458 0.0899325 0)
(10.047 0.0981536 0)
(10.0484 0.107122 0)
(10.05 0.116727 0)
(10.0007 0.00854194 0)
(10.0034 0.0163083 0)
(10.0076 0.0233187 0)
(10.0123 0.029167 0)
(10.017 0.0342577 0)
(10.0215 0.0389234 0)
(10.0257 0.0433844 0)
(10.0295 0.0478186 0)
(10.033 0.0523831 0)
(10.0361 0.0572111 0)
(10.0389 0.0624133 0)
(10.0414 0.0680818 0)
(10.0436 0.074292 0)
(10.0457 0.081102 0)
(10.0478 0.0885496 0)
(10.0499 0.0966477 0)
(10.0521 0.105373 0)
(10.0547 0.114611 0)
(10.0006 0.00746856 0)
(10.0029 0.0141791 0)
(10.0066 0.0205871 0)
(10.0109 0.0261438 0)
(10.0154 0.0311179 0)
(10.0198 0.0357676 0)
(10.024 0.0402851 0)
(10.028 0.0448247 0)
(10.0318 0.0495193 0)
(10.0353 0.0544812 0)
(10.0386 0.0598024 0)
(10.0418 0.0655565 0)
(10.0447 0.0717991 0)
(10.0477 0.0785681 0)
(10.0506 0.0858817 0)
(10.0537 0.0937367 0)
(10.0569 0.102099 0)
(10.0604 0.110858 0)
(10.0005 0.00633065 0)
(10.0026 0.0119128 0)
(10.0058 0.0175841 0)
(10.0098 0.0226897 0)
(10.0141 0.0274035 0)
(10.0185 0.0319136 0)
(10.0228 0.0363741 0)
(10.0271 0.0409103 0)
(10.0313 0.0456273 0)
(10.0353 0.0506128 0)
(10.0392 0.0559365 0)
(10.0431 0.061651 0)
(10.0469 0.067792 0)
(10.0507 0.0743785 0)
(10.0546 0.0814129 0)
(10.0586 0.0888797 0)
(10.0628 0.0967393 0)
(10.0674 0.104887 0)
(10.0005 0.0050906 0)
(10.0023 0.00944341 0)
(10.0053 0.0142089 0)
(10.0091 0.0186643 0)
(10.0134 0.022923 0)
(10.0178 0.0271122 0)
(10.0224 0.0313428 0)
(10.027 0.0357061 0)
(10.0317 0.040277 0)
(10.0363 0.0451153 0)
(10.0409 0.0502664 0)
(10.0456 0.0557607 0)
(10.0503 0.0616147 0)
(10.055 0.0678314 0)
(10.0599 0.0744006 0)
(10.0649 0.0812994 0)
(10.0701 0.0884866 0)
(10.0757 0.0958671 0)
(10.0005 0.00366843 0)
(10.0022 0.0066276 0)
(10.0052 0.0102559 0)
(10.009 0.0138063 0)
(10.0133 0.0173546 0)
(10.018 0.0209769 0)
(10.023 0.024739 0)
(10.0281 0.0286949 0)
(10.0333 0.0328868 0)
(10.0387 0.0373458 0)
(10.0441 0.0420916 0)
(10.0496 0.0471332 0)
(10.0552 0.0524697 0)
(10.0609 0.0580905 0)
(10.0667 0.0639762 0)
(10.0727 0.0700997 0)
(10.0789 0.0764204 0)
(10.0854 0.0828546 0)
(10.0005 0.0019081 0)
(10.0024 0.00318254 0)
(10.0055 0.00531717 0)
(10.0095 0.00761014 0)
(10.0142 0.010108 0)
(10.0194 0.0128363 0)
(10.0249 0.0158121 0)
(10.0306 0.0190494 0)
(10.0366 0.0225564 0)
(10.0427 0.0263349 0)
(10.049 0.0303799 0)
(10.0554 0.0346809 0)
(10.0619 0.0392224 0)
(10.0686 0.043984 0)
(10.0753 0.0489413 0)
(10.0823 0.0540654 0)
(10.0893 0.0593195 0)
(10.0966 0.0646349 0)
(10.0006 7.79957e-05 0)
(10.0027 -0.000355328 0)
(10.0061 0.000178308 0)
(10.0107 0.00111325 0)
(10.016 0.00246355 0)
(10.0217 0.00419513 0)
(10.0278 0.00627587 0)
(10.0342 0.00868427 0)
(10.0409 0.0114003 0)
(10.0477 0.0144013 0)
(10.0547 0.0176628 0)
(10.0618 0.0211593 0)
(10.069 0.0248649 0)
(10.0764 0.0287529 0)
(10.0839 0.0327961 0)
(10.0914 0.0369666 0)
(10.0991 0.0412328 0)
(10.107 0.0455366 0)
(10.0007 -0.00157532 0)
(10.003 -0.00355958 0)
(10.007 -0.00446604 0)
(10.0121 -0.00469297 0)
(10.018 -0.00429285 0)
(10.0243 -0.00338625 0)
(10.031 -0.00205259 0)
(10.0379 -0.000338965 0)
(10.0451 0.00171429 0)
(10.0525 0.00406758 0)
(10.06 0.00668282 0)
(10.0676 0.00952566 0)
(10.0753 0.0125635 0)
(10.0831 0.0157646 0)
(10.0911 0.0190979 0)
(10.0991 0.0225333 0)
(10.1072 0.0260385 0)
(10.1154 0.0295613 0)
(10.0008 -0.00318564 0)
(10.0034 -0.00676207 0)
(10.008 -0.00909033 0)
(10.0139 -0.0103528 0)
(10.0204 -0.0107546 0)
(10.0273 -0.0105431 0)
(10.0345 -0.00984026 0)
(10.0419 -0.00871679 0)
(10.0496 -0.00723759 0)
(10.0573 -0.00545931 0)
(10.0653 -0.00342467 0)
(10.0733 -0.0011689 0)
(10.0814 0.00127667 0)
(10.0896 0.00388149 0)
(10.0978 0.00661399 0)
(10.1061 0.00944348 0)
(10.1144 0.0123383 0)
(10.1229 0.0152505 0)
(10.0008 -0.00471091 0)
(10.0037 -0.0100075 0)
(10.0092 -0.013728 0)
(10.016 -0.015866 0)
(10.0232 -0.0169569 0)
(10.0306 -0.0173615 0)
(10.0382 -0.0171898 0)
(10.0461 -0.0165299 0)
(10.054 -0.0154866 0)
(10.0622 -0.0141486 0)
(10.0704 -0.0125778 0)
(10.0787 -0.010816 0)
(10.087 -0.00889437 0)
(10.0954 -0.00683876 0)
(10.1039 -0.00467243 0)
(10.1124 -0.0024202 0)
(10.1209 -0.000111211 0)
(10.1296 0.00220512 0)
(10.0007 -0.00612183 0)
(10.004 -0.0135033 0)
(10.0104 -0.0183519 0)
(10.0182 -0.0209423 0)
(10.026 -0.0225522 0)
(10.0338 -0.02356 0)
(10.0419 -0.0239401 0)
(10.05 -0.0237459 0)
(10.0583 -0.0230938 0)
(10.0666 -0.0220899 0)
(10.0749 -0.0208153 0)
(10.0833 -0.0193328 0)
(10.0917 -0.0176913 0)
(10.1002 -0.0159296 0)
(10.1087 -0.014079 0)
(10.1173 -0.0121667 0)
(10.1258 -0.0102187 0)
(10.1344 -0.00827364 0)
(10.0003 -0.00712365 0)
(10.0039 -0.0180795 0)
(10.0118 -0.0238141 0)
(10.0204 -0.0260477 0)
(10.0284 -0.0275452 0)
(10.0364 -0.0287403 0)
(10.0447 -0.0295092 0)
(10.0531 -0.0298678 0)
(10.0615 -0.0298716 0)
(10.0699 -0.029554 0)
(10.0784 -0.0289428 0)
(10.0868 -0.0280728 0)
(10.0952 -0.0269852 0)
(10.1037 -0.025722 0)
(10.1122 -0.0243226 0)
(10.1206 -0.0228249 0)
(10.1291 -0.0212727 0)
(10.1376 -0.0197478 0)
(9.99874 -0.00498905 0)
(10.0022 -0.0221513 0)
(10.0126 -0.0302511 0)
(10.0222 -0.0328235 0)
(10.0301 -0.0338346 0)
(10.0379 -0.0339252 0)
(10.046 -0.0334202 0)
(10.0543 -0.0326946 0)
(10.0625 -0.0319373 0)
(10.0708 -0.0311812 0)
(10.0791 -0.0304021 0)
(10.0874 -0.0295714 0)
(10.0958 -0.0286724 0)
(10.1041 -0.0276995 0)
(10.1124 -0.0266551 0)
(10.1206 -0.0255469 0)
(10.1287 -0.0243902 0)
(10.1368 -0.0232348 0)
(9.99348 0.00098688 0)
(9.99523 -0.0172699 0)
(10.0095 -0.0294314 0)
(10.0215 -0.0395196 0)
(10.0304 -0.0474946 0)
(10.0386 -0.0523609 0)
(10.0466 -0.0546826 0)
(10.0543 -0.0553786 0)
(10.0617 -0.0550908 0)
(10.0691 -0.0541964 0)
(10.0764 -0.0529171 0)
(10.0837 -0.0513884 0)
(10.091 -0.0496961 0)
(10.0983 -0.0478956 0)
(10.1056 -0.0460209 0)
(10.1128 -0.0440895 0)
(10.1199 -0.0421147 0)
(10.1272 -0.040173 0)
(9.98703 -0.0212019 0)
(9.98603 0.000774304 0)
(9.99909 0.0239894 0)
(10.0097 0.0289834 0)
(10.0183 0.0247371 0)
(10.0264 0.0179553 0)
(10.0336 0.0108218 0)
(10.0396 0.00405549 0)
(10.0448 -0.00203017 0)
(10.0492 -0.00731919 0)
(10.0533 -0.0118086 0)
(10.057 -0.0155494 0)
(10.0605 -0.0186118 0)
(10.0638 -0.0210668 0)
(10.067 -0.0229746 0)
(10.07 -0.0243715 0)
(10.073 -0.0252516 0)
(10.0754 -0.0255566 0)
(10.0405 -0.330122 0)
(10.0418 -0.356548 0)
(10.0289 -0.306325 0)
(10.0082 -0.259212 0)
(9.98892 -0.220127 0)
(9.97125 -0.187657 0)
(9.95353 -0.161193 0)
(9.93515 -0.139833 0)
(9.91616 -0.122561 0)
(9.89679 -0.108506 0)
(9.87726 -0.0969812 0)
(9.85775 -0.0874579 0)
(9.83842 -0.0795247 0)
(9.81942 -0.0728557 0)
(9.80089 -0.067185 0)
(9.78295 -0.0622758 0)
(9.76572 -0.057854 0)
(9.74871 -0.0533433 0)
(9.91236 1.02639 0)
(9.89974 0.659892 0)
(9.80365 0.458811 0)
(9.68292 0.328054 0)
(9.56148 0.238282 0)
(9.44441 0.175115 0)
(9.33199 0.129566 0)
(9.22468 0.0960837 0)
(9.12296 0.0711333 0)
(9.02709 0.0523511 0)
(8.93709 0.0380973 0)
(8.85284 0.0272081 0)
(8.77411 0.0188446 0)
(8.70065 0.0123962 0)
(8.63218 0.00741655 0)
(8.56848 0.00358531 0)
(8.50944 0.00071752 0)
(8.4533 -0.00113425 0)
(0.0180349 -0.0820614 -4.37745e-19)
(0.0429581 -0.0380078 3.53672e-19)
(0.0191349 0.0316584 0)
(-0.0464109 0.0876853 0)
(-0.127097 0.1107 0)
(-0.218144 0.120926 -1.25266e-19)
(-0.316474 0.126487 0)
(-0.420251 0.129933 0)
(-0.528221 0.132148 0)
(-0.639733 0.133567 0)
(-0.754018 0.134309 5.78795e-20)
(-0.870475 0.134458 0)
(-0.988569 0.134097 0)
(-1.1078 0.133295 0)
(-1.22772 0.132116 0)
(-1.34796 0.130615 3.90387e-20)
(-1.46817 0.128843 0)
(-1.58808 0.126848 0)
(-1.70744 0.124675 0)
(-1.82601 0.122363 0)
(-1.94362 0.119946 0)
(-2.0601 0.117452 0)
(-2.17533 0.114906 0)
(-2.28923 0.112332 2.90322e-20)
(-2.40171 0.109751 -2.84397e-20)
(-2.51268 0.107179 2.7928e-20)
(-2.62212 0.104627 2.7486e-20)
(-2.72998 0.102106 0)
(-2.83627 0.0996248 0)
(-2.94097 0.0971904 -2.64946e-20)
(-3.04406 0.0948077 -2.62547e-20)
(-3.14556 0.0924786 0)
(-3.24549 0.0902047 0)
(-3.34386 0.0879871 -2.57412e-20)
(-3.44069 0.0858264 0)
(-3.536 0.0837223 0)
(-3.62981 0.0816721 2.54717e-20)
(-3.72214 0.0796744 0)
(-3.81303 0.0777278 2.53966e-20)
(-3.90249 0.0758311 5.07708e-20)
(-3.99054 0.0739816 0)
(-4.07719 0.0721759 0)
(-4.16247 0.0704122 0)
(-4.24639 0.0686893 0)
(-4.32895 0.0670047 0)
(-4.41016 0.0653551 5.12359e-20)
(-4.49003 0.0637382 5.14015e-20)
(-4.56856 0.0621523 5.15911e-20)
(-4.64574 0.0605958 0)
(-4.72157 0.0590657 -5.20431e-20)
(-4.79603 0.0575595 0)
(-4.86913 0.0560758 5.25941e-20)
(-4.94084 0.0546134 5.29078e-20)
(-5.01113 0.0531703 0)
(-5.08 0.0517436 0)
(-5.14742 0.0503323 0)
(-5.21336 0.0489355 5.44154e-20)
(-5.27777 0.0475507 0)
(-5.34062 0.0461746 0)
(-5.40186 0.0448047 0)
(-5.46145 0.0434388 0)
(-5.5193 0.0420724 0)
(-5.57534 0.0406998 0)
(-5.6295 0.0393166 0)
(-5.68167 0.0379177 0)
(-5.73174 0.0364961 -5.8979e-20)
(-5.77958 0.0350451 0)
(-5.82507 0.0335597 0)
(-5.86805 0.0320346 6.07727e-20)
(-5.90836 0.0304627 6.14112e-20)
(-5.94584 0.0288392 0)
(-5.98029 0.0271606 -6.27666e-20)
(-6.01153 0.02542 6.34878e-20)
(-6.03934 0.0236081 0)
(-6.06351 0.0217144 -6.50179e-20)
(-6.08377 0.0197199 0)
(-6.09983 0.0175886 0)
(-6.11134 0.0152949 6.74596e-20)
(-6.11796 0.0128365 0)
(-6.11931 0.010195 -6.90478e-20)
(-6.11501 0.00734367 0)
(-6.10468 0.00426571 7.06282e-20)
(-6.08792 0.000941031 7.14015e-20)
(-6.06436 -0.0026495 7.21523e-20)
(-6.03361 -0.00652486 1.45737e-19)
(-5.99527 -0.0107041 -1.4707e-19)
(-5.94899 -0.0152022 0)
(-5.8944 -0.0200318 0)
(-5.83117 -0.0252016 0)
(-5.759 -0.030714 -1.50529e-19)
(-5.67761 -0.0365659 -1.50634e-19)
(-5.58678 -0.0427465 1.50291e-19)
(-5.48634 -0.0492371 0)
(-5.37617 -0.0560105 -1.47916e-19)
(-5.25622 -0.0630301 -1.45699e-19)
(-5.12651 -0.0702506 -1.42668e-19)
(-4.98713 -0.0776189 0)
(-4.83827 -0.0850737 0)
(-4.68019 -0.092547 0)
(-4.51324 -0.0999671 -1.20447e-19)
(-4.33787 -0.107259 0)
(-4.15461 -0.114347 0)
(-3.96408 -0.121161 9.05343e-20)
(-3.76698 -0.127634 0)
(-3.56407 -0.133708 0)
(-3.35619 -0.139337 4.64925e-20)
(-3.14422 -0.144488 0)
(-2.92908 -0.149144 0)
(-2.7117 -0.153298 1.47103e-20)
(-2.49302 -0.156957 3.97012e-20)
(-2.27396 -0.160138 0)
(-2.05544 -0.162866 -9.82405e-20)
(-1.83832 -0.165156 0)
(-1.62343 -0.167014 1.71424e-19)
(-1.41149 -0.168478 0)
(-1.20312 -0.169565 2.66102e-19)
(-0.99904 -0.170214 3.25454e-19)
(-0.799855 -0.169896 0)
(-0.604777 -0.168791 0)
(-0.417884 -0.168795 0)
(-0.2293 -0.168785 0)
(-0.0257778 -0.162507 0)
(0.166926 -0.151225 0)
(0.348244 -0.13863 0)
(0.517835 -0.12665 5.18456e-19)
(0.675292 -0.115589 -4.87204e-19)
(0.821075 -0.105454 0)
(0.955863 -0.0961825 0)
(1.08037 -0.0877001 0)
(1.19531 -0.0799361 0)
(1.30132 -0.0728264 -7.89629e-19)
(1.39902 -0.0663144 0)
(1.489 -0.0603494 7.45654e-19)
(1.57179 -0.0548864 -7.27239e-19)
(1.6479 -0.0498845 0)
(1.71779 -0.0453065 0)
(1.78191 -0.0411184 0)
(1.84067 -0.0372888 6.70512e-19)
(1.89447 -0.0337889 6.59614e-19)
(1.94366 -0.030592 0)
(1.98858 -0.0276733 6.40835e-19)
(2.02955 -0.0250099 6.32765e-19)
(2.06686 -0.0225808 -6.25468e-19)
(2.1008 -0.0203664 0)
(2.13161 -0.0183486 0)
(2.15954 -0.016511 -6.07564e-19)
(2.18481 -0.0148383 0)
(2.20763 -0.0133165 0)
(2.22818 -0.0119327 0)
(2.24666 -0.0106752 0)
(2.26322 -0.00953324 5.87974e-19)
(2.27803 -0.00849719 5.85229e-19)
(2.29123 -0.00755812 0)
(2.30296 -0.00670788 5.80655e-19)
(2.31335 -0.00593904 0)
(2.32252 -0.00524481 0)
(2.33059 -0.00461901 5.75678e-19)
(2.33765 -0.00405597 0)
(2.34382 -0.00355047 5.73341e-19)
(2.34919 -0.00309807 0)
(2.35384 -0.00269621 0)
(2.35789 -0.00233965 5.70826e-19)
(2.3614 -0.00202089 0)
(2.36443 -0.00173551 5.69567e-19)
(2.36704 -0.00147998 0)
(2.36927 -0.0012504 0)
(2.37117 -0.00104175 0)
(2.37275 -0.000848038 -5.67974e-19)
(2.37403 -0.000662026 0)
(2.37498 -0.000474503 5.67566e-19)
(2.37555 -0.000273108 0)
(2.37564 -4.03881e-05 0)
(2.37507 0.000249944 0)
(2.37353 0.000639743 0)
(2.37053 0.0012004 0)
(2.36519 0.00206538 0)
(2.35594 0.00351585 0)
(2.33948 0.00623097 -1.15444e-18)
(2.30919 0.0122848 0)
(2.22222 0.0325961 0)
(-0.0362748 -0.0489576 9.00869e-19)
(-0.0769618 0.0754779 -4.11574e-19)
(-0.131719 0.160749 0)
(-0.20287 0.219965 1.43039e-19)
(-0.281457 0.258037 0)
(-0.367448 0.283361 5.40005e-20)
(-0.460611 0.301271 -9.57073e-20)
(-0.559679 0.314449 -8.60433e-20)
(-0.663437 0.324242 0)
(-0.770883 0.331385 -7.1709e-20)
(-0.881175 0.33632 -3.3305e-20)
(-0.993622 0.339369 0)
(-1.10764 0.340796 0)
(-1.22272 0.340824 0)
(-1.33842 0.339649 0)
(-1.45435 0.337441 -2.5074e-20)
(-1.57019 0.334353 0)
(-1.68566 0.330521 4.62035e-20)
(-1.80053 0.326071 0)
(-1.91459 0.321117 0)
(-2.02768 0.315761 -4.2407e-20)
(-2.13964 0.310088 0)
(-2.25037 0.304175 4.0677e-20)
(-2.3598 0.298089 -2.01334e-20)
(-2.46784 0.291892 1.98399e-20)
(-2.57444 0.285636 -1.95899e-20)
(-2.67958 0.279362 -1.93781e-20)
(-2.78321 0.273103 0)
(-2.88534 0.266889 0)
(-2.98596 0.260744 1.89311e-20)
(-3.08508 0.25469 -1.85542e-20)
(-3.18269 0.248739 0)
(-3.27881 0.242899 0)
(-3.37346 0.237177 1.86692e-20)
(-3.46666 0.231579 0)
(-3.55842 0.226106 0)
(-3.64876 0.220757 -1.86563e-20)
(-3.7377 0.215527 0)
(-3.82527 0.210413 1.8434e-20)
(-3.91147 0.205412 -3.75262e-20)
(-3.99632 0.200517 0)
(-4.07982 0.195719 0)
(-4.16201 0.191012 -7.53215e-20)
(-4.24287 0.186389 -7.56758e-20)
(-4.32243 0.181844 -7.60665e-20)
(-4.40066 0.177367 3.79818e-20)
(-4.47758 0.172949 -3.87379e-20)
(-4.55319 0.168585 -1.16432e-19)
(-4.62747 0.164268 7.79809e-20)
(-4.7004 0.159988 3.95259e-20)
(-4.77198 0.155739 0)
(-4.84218 0.151513 -4.01436e-20)
(-4.91098 0.147304 3.99918e-20)
(-4.97835 0.143104 0)
(-5.04426 0.138903 0)
(-5.10868 0.134693 0)
(-5.17155 0.130466 -4.2025e-20)
(-5.23284 0.126211 0)
(-5.29249 0.121916 8.5347e-20)
(-5.35044 0.117569 0)
(-5.40663 0.113156 8.72356e-20)
(-5.46098 0.108661 0)
(-5.51341 0.104067 -8.92163e-20)
(-5.56383 0.0993574 0)
(-5.61213 0.0945125 9.12663e-20)
(-5.6582 0.0895137 -4.59629e-20)
(-5.70191 0.0843422 0)
(-5.74313 0.0789807 -9.44607e-20)
(-5.7817 0.0734135 -4.79653e-20)
(-5.81745 0.0676253 -4.85292e-20)
(-5.85021 0.0616028 0)
(-5.87979 0.0553342 -4.93673e-20)
(-5.90598 0.0488072 -5.03303e-20)
(-5.92857 0.0420051 0)
(-5.9473 0.0349066 5.16321e-20)
(-5.96193 0.0274798 -1.04329e-19)
(-5.97215 0.0196714 0)
(-5.97766 0.0114553 -5.36161e-20)
(-5.9783 0.00281708 0)
(-5.97367 -0.00624267 1.64167e-19)
(-5.96343 -0.0157235 0)
(-5.94721 -0.0256202 -1.67552e-19)
(-5.92464 -0.0359267 -5.64596e-20)
(-5.89535 -0.0466333 5.67032e-20)
(-5.85894 -0.0577266 1.14305e-19)
(-5.81504 -0.0691887 -1.15098e-19)
(-5.76326 -0.080995 0)
(-5.70323 -0.0931143 0)
(-5.6346 -0.105508 0)
(-5.55703 -0.118131 3.50156e-19)
(-5.47022 -0.130927 1.16402e-19)
(-5.37391 -0.143834 -1.15642e-19)
(-5.26788 -0.15678 0)
(-5.15197 -0.169684 -1.13332e-19)
(-5.02608 -0.182456 1.10504e-19)
(-4.8902 -0.195 1.07643e-19)
(-4.74438 -0.207212 0)
(-4.58879 -0.218983 0)
(-4.42365 -0.230202 0)
(-4.24934 -0.240752 8.90831e-20)
(-4.06628 -0.250522 0)
(-3.87503 -0.259401 -1.53696e-19)
(-3.67623 -0.267287 -2.04313e-19)
(-3.47063 -0.274093 1.19737e-19)
(-3.25905 -0.279742 0)
(-3.04237 -0.284181 4.21934e-20)
(-2.82154 -0.287381 0)
(-2.59754 -0.289333 3.19786e-20)
(-2.37139 -0.29006 -6.30322e-21)
(-2.14408 -0.289608 7.1557e-21)
(-1.9166 -0.288047 0)
(-1.68991 -0.285478 1.23722e-19)
(-1.4649 -0.282007 -1.11371e-19)
(-1.24242 -0.27775 -7.62962e-20)
(-1.02314 -0.272957 0)
(-0.807609 -0.267884 -1.11688e-19)
(-0.596302 -0.262466 -3.82585e-19)
(-0.389468 -0.25713 0)
(-0.18172 -0.253797 -3.23508e-19)
(0.0210419 -0.253037 -3.36893e-19)
(0.212001 -0.249724 -3.43638e-19)
(0.389367 -0.239206 0)
(0.553343 -0.22368 0)
(0.708324 -0.206844 0)
(0.855472 -0.190319 1.80313e-19)
(0.994642 -0.17466 1.87262e-19)
(1.12571 -0.16004 0)
(1.2487 -0.146483 3.74354e-19)
(1.36375 -0.133954 3.75866e-19)
(1.4711 -0.122395 0)
(1.57104 -0.111743 3.80914e-19)
(1.66389 -0.101934 7.55778e-19)
(1.75001 -0.0929085 -3.80795e-19)
(1.82976 -0.0846086 -3.75331e-19)
(1.9035 -0.0769819 0)
(1.97159 -0.0699786 0)
(2.03438 -0.0635525 0)
(2.09221 -0.0576602 -3.78324e-19)
(2.14542 -0.0522611 3.74595e-19)
(2.19431 -0.0473172 7.51567e-19)
(2.23919 -0.0427932 -3.76713e-19)
(2.28034 -0.038656 3.73936e-19)
(2.31803 -0.0348752 3.7588e-19)
(2.3525 -0.0314221 0)
(2.38401 -0.0282706 0)
(2.41276 -0.0253963 -3.73587e-19)
(2.43897 -0.022777 0)
(2.46283 -0.020392 0)
(2.48454 -0.0182226 7.48806e-19)
(2.50425 -0.0162514 0)
(2.52213 -0.0144628 3.74262e-19)
(2.53832 -0.0128425 -3.75316e-19)
(2.55298 -0.0113775 0)
(2.56623 -0.0100556 3.75161e-19)
(2.57819 -0.00886612 0)
(2.58899 -0.00779898 0)
(2.59873 -0.006845 -3.76713e-19)
(2.60751 -0.00599563 7.53735e-19)
(2.61544 -0.00524298 -3.77412e-19)
(2.62261 -0.00458002 0)
(2.62909 -0.00400318 0)
(2.63496 -0.00350554 3.78227e-19)
(2.64029 -0.00307537 0)
(2.64517 -0.00270176 3.78837e-19)
(2.64966 -0.00237582 0)
(2.65381 -0.00209008 0)
(2.65767 -0.00183428 0)
(2.66125 -0.00159559 3.79911e-19)
(2.66457 -0.00135767 0)
(2.66761 -0.0010989 -3.80307e-19)
(2.67032 -0.000789254 0)
(2.67261 -0.000385175 0)
(2.6743 0.000179478 7.61996e-19)
(2.67512 0.00101065 -7.6275e-19)
(2.6746 0.00228892 0)
(2.67194 0.00434825 0)
(2.66579 0.00786881 0)
(2.65357 0.0144018 2.31523e-18)
(2.63196 0.0283167 0)
(2.58081 0.0638111 -1.56162e-18)
(-0.066154 0.104768 -3.39409e-21)
(-0.12634 0.225206 3.42312e-19)
(-0.193484 0.314529 0)
(-0.273434 0.38213 -1.81925e-19)
(-0.356371 0.432265 0)
(-0.442642 0.469358 0)
(-0.532999 0.497091 -2.73463e-24)
(-0.627117 0.517924 5.86951e-20)
(-0.724401 0.533411 5.41624e-20)
(-0.824263 0.544562 5.02443e-20)
(-0.926154 0.552082 0)
(-1.02958 0.556509 0)
(-1.13412 0.558284 -4.19027e-20)
(-1.23937 0.557787 -7.97276e-20)
(-1.34501 0.555348 7.6217e-20)
(-1.45074 0.55126 0)
(-1.5563 0.54578 7.05717e-20)
(-1.66147 0.539137 -3.41422e-20)
(-1.76608 0.531538 0)
(-1.86997 0.523165 6.46571e-20)
(-1.973 0.514183 3.16224e-20)
(-2.07508 0.504733 -6.19317e-20)
(-2.17612 0.494936 -3.04715e-20)
(-2.27604 0.484898 0)
(-2.37481 0.474712 5.91213e-20)
(-2.47238 0.464455 5.8449e-20)
(-2.56872 0.454194 0)
(-2.66382 0.44398 5.74179e-20)
(-2.75765 0.433856 0)
(-2.85023 0.423858 5.67366e-20)
(-2.94154 0.414012 2.83712e-20)
(-3.0316 0.40434 0)
(-3.12041 0.394855 0)
(-3.20798 0.385564 0)
(-3.29432 0.376473 0)
(-3.37944 0.367584 0)
(-3.46336 0.358896 0)
(-3.54608 0.350401 5.64918e-20)
(-3.62762 0.342092 -8.51748e-20)
(-3.70797 0.333962 0)
(-3.78717 0.326001 0)
(-3.8652 0.318197 0)
(-3.94207 0.310537 3.43655e-22)
(-4.01779 0.303009 5.84893e-20)
(-4.09235 0.295602 1.17422e-19)
(-4.16576 0.288303 -1.18272e-19)
(-4.23801 0.281097 -5.94181e-20)
(-4.30908 0.273972 6.02494e-20)
(-4.37898 0.266918 -3.44435e-22)
(-4.44769 0.259921 6.09686e-20)
(-4.51518 0.252969 0)
(-4.58145 0.24605 6.21594e-20)
(-4.64646 0.239152 -3.43777e-22)
(-4.71018 0.232262 0)
(-4.77258 0.225367 0)
(-4.83363 0.218452 -6.49391e-20)
(-4.89327 0.211502 0)
(-4.95147 0.204502 0)
(-5.00816 0.197431 6.70316e-20)
(-5.06328 0.190269 1.36485e-19)
(-5.11677 0.182994 -6.94681e-20)
(-5.16855 0.175582 0)
(-5.21854 0.168005 7.13081e-20)
(-5.26665 0.160236 0)
(-5.31277 0.152244 7.26378e-20)
(-5.3568 0.143999 7.41844e-20)
(-5.39861 0.135469 -1.49815e-19)
(-5.43808 0.126625 -7.56687e-20)
(-5.47504 0.117437 0)
(-5.50933 0.107875 1.56014e-19)
(-5.54078 0.0979125 0)
(-5.56919 0.0875216 2.40817e-19)
(-5.59436 0.0766747 1.62707e-19)
(-5.61605 0.0653402 1.65081e-19)
(-5.63402 0.0534805 -1.67525e-19)
(-5.64803 0.0410486 2.55156e-19)
(-5.65776 0.0279881 0)
(-5.66302 0.0142652 0)
(-5.66349 -0.000166899 -1.76652e-19)
(-5.65884 -0.0153335 -2.67954e-19)
(-5.64869 -0.031239 0)
(-5.6327 -0.0478801 9.11036e-20)
(-5.61048 -0.0652472 0)
(-5.58165 -0.0833241 -2.78087e-19)
(-5.5458 -0.102086 2.42891e-22)
(-5.50253 -0.121496 -2.93008e-22)
(-5.45144 -0.141507 1.88667e-19)
(-5.39213 -0.162058 0)
(-5.32421 -0.183073 -1.89265e-19)
(-5.24732 -0.204464 5.72586e-22)
(-5.16113 -0.226124 0)
(-5.06533 -0.247933 0)
(-4.95967 -0.269754 0)
(-4.84397 -0.291437 1.80294e-19)
(-4.71812 -0.312813 0)
(-4.58206 -0.333705 0)
(-4.43585 -0.353923 0)
(-4.27964 -0.373274 0)
(-4.11369 -0.391557 0)
(-3.93835 -0.408572 1.42579e-19)
(-3.75412 -0.424124 0)
(-3.56157 -0.438029 1.1767e-19)
(-3.36141 -0.450119 1.04578e-19)
(-3.15443 -0.460252 -9.0341e-20)
(-2.94151 -0.468311 0)
(-2.72362 -0.474216 -5.86712e-20)
(-2.50176 -0.47793 0)
(-2.27701 -0.47945 -2.32758e-20)
(-2.05042 -0.478821 4.4199e-21)
(-1.82307 -0.47613 -3.6822e-20)
(-1.596 -0.471504 0)
(-1.37018 -0.465114 -1.57303e-19)
(-1.14654 -0.457156 -6.64969e-20)
(-0.925902 -0.447775 0)
(-0.708833 -0.437361 -2.26511e-19)
(-0.495987 -0.426427 -2.69178e-19)
(-0.287615 -0.415246 4.7241e-19)
(-0.0809329 -0.404116 0)
(0.115858 -0.392041 1.86652e-19)
(0.301882 -0.37766 1.95261e-19)
(0.47681 -0.361265 6.00206e-19)
(0.641303 -0.34295 0)
(0.79619 -0.322938 0)
(0.942695 -0.302056 0)
(1.08134 -0.281204 2.21153e-19)
(1.21224 -0.260907 0)
(1.33545 -0.241446 0)
(1.45108 -0.22296 -2.40049e-19)
(1.5593 -0.205512 -2.43157e-19)
(1.66033 -0.18912 0)
(1.75445 -0.173775 0)
(1.84196 -0.159452 -5.00489e-19)
(1.92317 -0.146118 0)
(1.99842 -0.133731 5.07196e-19)
(2.06805 -0.122248 5.06944e-19)
(2.13237 -0.11162 0)
(2.19173 -0.101802 0)
(2.24643 -0.0927432 -5.14422e-19)
(2.29678 -0.0843975 -2.1043e-21)
(2.34308 -0.076718 -1.9144e-21)
(2.38561 -0.0696595 0)
(2.42463 -0.0631789 -1.04572e-18)
(2.46039 -0.0572348 0)
(2.49314 -0.0517882 0)
(2.5231 -0.0468022 0)
(2.55048 -0.0422424 5.29633e-19)
(2.57548 -0.0380765 0)
(2.59828 -0.0342745 -1.06329e-18)
(2.61906 -0.0308088 -5.33914e-19)
(2.63798 -0.0276537 0)
(2.65519 -0.0247856 -5.36707e-19)
(2.67084 -0.022183 0)
(2.68505 -0.019826 0)
(2.69797 -0.0176963 -1.62142e-18)
(2.7097 -0.0157774 1.08335e-18)
(2.72036 -0.0140537 0)
(2.73006 -0.012511 1.08852e-18)
(2.73888 -0.0111359 -5.45748e-19)
(2.74694 -0.00991605 0)
(2.75431 -0.00883959 0)
(2.76107 -0.00789495 0)
(2.76731 -0.00707209 -1.64958e-18)
(2.77309 -0.00636125 0)
(2.77846 -0.00574839 -5.51626e-19)
(2.78352 -0.00521804 0)
(2.78829 -0.00475537 0)
(2.79283 -0.00434324 0)
(2.79716 -0.0039607 0)
(2.8013 -0.00358136 0)
(2.80522 -0.00317044 0)
(2.8089 -0.00267999 -1.11037e-18)
(2.81224 -0.0020408 0)
(2.81512 -0.00114865 -5.56048e-19)
(2.81728 0.00016119 1.66953e-18)
(2.81834 0.00216429 0)
(2.81771 0.00535383 0)
(2.81443 0.0106817 -1.11841e-18)
(2.80695 0.0201246 -1.12262e-18)
(2.79489 0.0382847 1.12662e-18)
(2.76931 0.0758877 1.13028e-18)
(-0.069172 0.271371 -8.95733e-19)
(-0.138242 0.399443 -3.9267e-19)
(-0.213106 0.487198 -1.71556e-19)
(-0.297577 0.55451 -6.92341e-20)
(-0.382529 0.607428 0)
(-0.46802 0.648696 1.09183e-19)
(-0.555073 0.680596 -4.9989e-20)
(-0.643871 0.704942 0)
(-0.734255 0.723088 -4.25744e-20)
(-0.825987 0.736033 0)
(-0.918805 0.744542 7.51002e-20)
(-1.01245 0.749235 0)
(-1.10668 0.750637 3.35552e-20)
(-1.20127 0.749209 6.40521e-20)
(-1.29601 0.74536 -6.1406e-20)
(-1.39072 0.739454 0)
(-1.48523 0.731815 -5.71268e-20)
(-1.5794 0.722737 0)
(-1.6731 0.712476 0)
(-1.76624 0.701262 -5.26204e-20)
(-1.85871 0.689299 0)
(-1.95045 0.676763 -1.38576e-22)
(-2.0414 0.663808 0)
(-2.1315 0.650565 0)
(-2.22071 0.637149 6.85667e-23)
(-2.30901 0.623654 -4.79215e-20)
(-2.39636 0.610159 -4.75344e-20)
(-2.48275 0.596732 -4.71703e-20)
(-2.56817 0.583423 0)
(-2.6526 0.570275 -9.3372e-20)
(-2.73604 0.55732 0)
(-2.8185 0.544584 -4.64036e-20)
(-2.89996 0.532082 0)
(-2.98043 0.519825 0)
(-3.05991 0.507818 4.63709e-20)
(-3.13841 0.496062 0)
(-3.21593 0.484554 -4.6562e-20)
(-3.29246 0.473289 -1.37778e-22)
(-3.36801 0.462256 9.39564e-20)
(-3.44259 0.451446 -9.42557e-20)
(-3.51618 0.440845 0)
(-3.5888 0.43044 0)
(-3.66044 0.420215 -4.78163e-20)
(-3.73109 0.410155 0)
(-3.80076 0.400244 -4.89177e-20)
(-3.86942 0.390465 4.93314e-20)
(-3.93709 0.380802 4.97733e-20)
(-4.00373 0.371237 0)
(-4.06935 0.361755 -5.07418e-20)
(-4.13392 0.352339 -5.12693e-20)
(-4.19743 0.342972 1.03264e-19)
(-4.25985 0.333639 -5.24142e-20)
(-4.32117 0.324322 -5.30332e-20)
(-4.38135 0.315003 0)
(-4.44035 0.305666 0)
(-4.49815 0.29629 5.50845e-20)
(-4.5547 0.286855 0)
(-4.60995 0.27734 0)
(-4.66386 0.267718 -1.14856e-19)
(-4.71635 0.257964 -1.16541e-19)
(-4.76738 0.248047 0)
(-4.81686 0.237937 0)
(-4.86472 0.227598 0)
(-4.91087 0.216992 0)
(-4.95522 0.20608 -1.25691e-19)
(-4.99766 0.194822 1.2734e-19)
(-5.03807 0.183175 1.29621e-19)
(-5.07632 0.171097 2.63029e-19)
(-5.11227 0.158545 0)
(-5.14575 0.145478 -2.20642e-22)
(-5.17659 0.131855 0)
(-5.2046 0.117637 -1.4024e-19)