/*--------------------------------*- C++ -*----------------------------------*\
| =========                 |                                                 |
| \\      /  F ield         | OpenFOAM: The Open Source CFD Toolbox           |
|  \\    /   O peration     | Version:  plus                                  |
|   \\  /    A nd           | Website:  www.openfoam.com                      |
|    \\/     M anipulation  |                                                 |
\*---------------------------------------------------------------------------*/
FoamFile
{
    version     2.0;
    format      ascii;
    class       volScalarField;
    location    "0";
    object      Phi;
}
// * * * * * * * * * * * * * * * * * * * * * * * * * * * * * * * * * * * * * //

dimensions      [0 2 -1 0 0 0 0];


internalField   nonuniform List<scalar> 
12225
(
0.274341
0.259044
0.244591
0.23092
0.217979
0.205713
0.19407
0.182998
0.172447
0.162364
0.152696
0.143385
0.134367
0.125563
0.11687
0.108132
0.0990647
0.0889762
0.274332
0.259039
0.244585
0.230916
0.217975
0.20571
0.194069
0.182999
0.172451
0.162371
0.152707
0.143403
0.134393
0.125603
0.116933
0.108242
0.0992949
0.0896736
0.27443
0.259137
0.244684
0.231014
0.218074
0.20581
0.19417
0.183102
0.172556
0.162481
0.152824
0.14353
0.134536
0.125772
0.117149
0.108549
0.0998129
0.0907825
0.274582
0.259289
0.244836
0.231167
0.218228
0.205965
0.194327
0.183263
0.172722
0.162655
0.153009
0.143731
0.134764
0.126041
0.117489
0.109021
0.100553
0.0920934
0.27479
0.259496
0.245044
0.231376
0.218439
0.206178
0.194544
0.183485
0.172953
0.162896
0.153267
0.144014
0.135083
0.126419
0.117961
0.109656
0.101478
0.0935167
0.275055
0.259762
0.245311
0.231644
0.218709
0.206453
0.194824
0.183773
0.173251
0.16321
0.153604
0.144383
0.1355
0.126909
0.118566
0.110442
0.102552
0.0950092
0.27538
0.260087
0.245638
0.231974
0.219042
0.206791
0.195169
0.184128
0.173621
0.163601
0.154023
0.144844
0.136021
0.127517
0.119302
0.111368
0.103749
0.096551
0.275766
0.260474
0.246027
0.232366
0.219439
0.207195
0.195583
0.184556
0.174067
0.164073
0.154531
0.145401
0.136648
0.128241
0.120164
0.11242
0.105047
0.0981331
0.276214
0.260924
0.246479
0.232823
0.219902
0.207667
0.196068
0.185057
0.174592
0.164629
0.155129
0.146057
0.137382
0.129081
0.121145
0.113583
0.106431
0.0997513
0.276726
0.261437
0.246996
0.233346
0.220433
0.208209
0.196625
0.185636
0.175198
0.165272
0.155821
0.146813
0.138223
0.130033
0.122237
0.114846
0.107887
0.101403
0.277302
0.262015
0.247578
0.233935
0.221033
0.208822
0.197257
0.186292
0.175886
0.166002
0.156606
0.147669
0.139168
0.13109
0.12343
0.116196
0.109406
0.103086
0.277887
0.262603
0.248172
0.234536
0.221645
0.20945
0.197905
0.186966
0.176594
0.166753
0.157412
0.148543
0.140126
0.132149
0.124607
0.117504
0.11085
0.104657
0.278531
0.263249
0.248824
0.235197
0.222319
0.210141
0.198618
0.187707
0.177372
0.167577
0.158292
0.149492
0.141159
0.13328
0.125848
0.118863
0.112328
0.106245
0.279333
0.264054
0.249637
0.236023
0.223161
0.211005
0.19951
0.188636
0.178345
0.168605
0.159387
0.150668
0.142428
0.134655
0.127338
0.120473
0.114056
0.108081
0.280301
0.265025
0.250619
0.237021
0.224181
0.212053
0.200594
0.189764
0.179528
0.169854
0.160714
0.152084
0.143946
0.136283
0.129084
0.122338
0.116034
0.110162
0.281433
0.266163
0.251771
0.238194
0.225382
0.21329
0.201875
0.191099
0.180928
0.171329
0.162275
0.153743
0.14571
0.13816
0.131076
0.124443
0.118245
0.112468
0.282709
0.267446
0.253072
0.239522
0.226745
0.214696
0.203334
0.192622
0.182523
0.173008
0.164046
0.155614
0.147689
0.140248
0.133272
0.126743
0.120641
0.114947
0.284072
0.268817
0.254467
0.240948
0.228212
0.216215
0.204914
0.194271
0.184251
0.174823
0.165956
0.157623
0.149799
0.142459
0.135582
0.129144
0.123125
0.117504
0.285401
0.270157
0.255832
0.24235
0.22966
0.217719
0.206483
0.195913
0.185974
0.176632
0.167855
0.159615
0.151883
0.144633
0.13784
0.13148
0.125531
0.119968
0.286236
0.271007
0.256702
0.243249
0.230596
0.218699
0.207513
0.197
0.18712
0.17784
0.169127
0.160951
0.153281
0.14609
0.139352
0.133041
0.127134
0.121608
0.286654
0.271436
0.257145
0.243711
0.231084
0.219217
0.208064
0.197587
0.187746
0.178506
0.169834
0.161697
0.154065
0.14691
0.140205
0.133924
0.128043
0.122538
0.286845
0.271634
0.257354
0.243935
0.231327
0.219481
0.208353
0.197902
0.188089
0.178878
0.170234
0.162124
0.154519
0.14739
0.140708
0.134448
0.128585
0.123095
0.286887
0.271682
0.257409
0.244002
0.231407
0.219578
0.208468
0.198036
0.188244
0.179053
0.170429
0.16234
0.154754
0.147642
0.140977
0.134732
0.128882
0.123404
0.286839
0.271639
0.257372
0.243973
0.231389
0.219571
0.208474
0.198057
0.188279
0.179103
0.170494
0.16242
0.154848
0.147749
0.141096
0.134862
0.129022
0.123552
0.286744
0.271548
0.257286
0.243892
0.231316
0.219507
0.20842
0.198013
0.188245
0.17908
0.170483
0.162419
0.154857
0.147768
0.141124
0.134898
0.129066
0.123602
0.286632
0.27144
0.257181
0.243792
0.23122
0.219418
0.208338
0.197938
0.188179
0.179022
0.170432
0.162375
0.154821
0.14774
0.141102
0.134882
0.129055
0.123597
0.286524
0.271335
0.257078
0.243693
0.231125
0.219327
0.208252
0.197857
0.188103
0.178952
0.170367
0.162317
0.154768
0.147691
0.141059
0.134843
0.12902
0.123566
0.286433
0.271247
0.256992
0.243609
0.231044
0.219249
0.208177
0.197786
0.188036
0.178888
0.170307
0.16226
0.154715
0.147642
0.141013
0.134801
0.128981
0.123529
0.286369
0.271186
0.256932
0.24355
0.230987
0.219194
0.208124
0.197736
0.187987
0.178842
0.170263
0.162219
0.154676
0.147605
0.140978
0.134768
0.12895
0.123501
0.286336
0.271156
0.256903
0.243522
0.23096
0.219167
0.208099
0.197711
0.187964
0.17882
0.170242
0.162199
0.154657
0.147587
0.140962
0.134753
0.128936
0.123488
0.0146267
0.0146027
0.0145878
0.014566
0.0145372
0.014501
0.014457
0.0144051
0.0143451
0.0142767
0.0141999
0.0141145
0.0140204
0.0139177
0.0138064
0.0136864
0.013558
0.0134211
0.0132761
0.013123
0.0129622
0.0127938
0.0126181
0.0124355
0.0122463
0.0120509
0.0118495
0.0116426
0.0114306
0.0112139
0.0109929
0.0107681
0.0105398
0.0103085
0.0100746
0.0098385
0.00960067
0.00936151
0.00912141
0.00888077
0.00863998
0.00839941
0.00815942
0.00792037
0.00768258
0.00744638
0.00721208
0.00697995
0.00675029
0.00652334
0.00629934
0.00607853
0.00586112
0.00564729
0.00543723
0.00523109
0.00502903
0.00483119
0.00463766
0.00444856
0.00426398
0.004084
0.00390866
0.00373803
0.00357214
0.00341102
0.00325467
0.00310312
0.00295634
0.00281432
0.00267704
0.00254447
0.00241656
0.00229326
0.00217452
0.00206028
0.00195046
0.001845
0.00174381
0.00164682
0.00155392
0.00146505
0.00138009
0.00129895
0.00122154
0.00114774
0.00107747
0.00101061
0.000947055
0.000886703
0.000829448
0.000775181
0.000723798
0.000675193
0.00062926
0.000585896
0.000544997
0.000506463
0.000470193
0.000436089
0.000404055
0.000373996
0.00034582
0.000319437
0.000294759
0.000271701
0.000250179
0.000230114
0.000211427
0.000194044
0.00017789
0.000162898
0.000148999
0.000136128
0.000124223
0.000113226
0.000103078
9.3726e-05
8.51181e-05
7.72046e-05
6.99389e-05
6.32763e-05
5.71747e-05
5.1594e-05
4.64966e-05
4.18467e-05
3.76109e-05
3.37574e-05
3.02567e-05
2.70809e-05
2.42039e-05
2.16014e-05
1.92505e-05
1.71301e-05
1.52203e-05
1.3503e-05
1.1961e-05
1.05786e-05
9.34118e-06
8.23533e-06
7.24863e-06
6.36968e-06
5.588e-06
4.89399e-06
4.27885e-06
3.73457e-06
3.2538e-06
2.8299e-06
2.45679e-06
2.12898e-06
1.84151e-06
1.58987e-06
1.37002e-06
1.17829e-06
1.01143e-06
8.6648e-07
7.4082e-07
6.321e-07
5.38227e-07
4.57342e-07
3.87793e-07
3.28118e-07
2.77025e-07
2.33375e-07
1.96165e-07
1.64517e-07
1.3766e-07
1.14921e-07
9.57135e-08
7.9527e-08
6.5919e-08
5.45065e-08
4.49586e-08
3.69907e-08
3.03579e-08
2.48506e-08
2.02897e-08
1.65224e-08
1.34187e-08
1.08687e-08
0.0147356
0.0147149
0.0146995
0.0146772
0.0146477
0.0146106
0.0145655
0.0145124
0.014451
0.014381
0.0143024
0.0142151
0.014119
0.0140142
0.0139005
0.0137782
0.0136472
0.0135078
0.0133601
0.0132043
0.0130407
0.0128695
0.012691
0.0125055
0.0123135
0.0121152
0.011911
0.0117013
0.0114865
0.0112671
0.0110434
0.0108159
0.0105851
0.0103513
0.0101149
0.0098765
0.0096364
0.00939504
0.00915283
0.00891017
0.00866743
0.008425
0.00818323
0.00794248
0.00770308
0.00746535
0.00722959
0.00699609
0.00676512
0.00653694
0.00631178
0.00608988
0.00587145
0.00565666
0.0054457
0.00523873
0.00503589
0.00483731
0.00464311
0.00445339
0.00426823
0.0040877
0.00391187
0.00374079
0.00357448
0.00341298
0.00325628
0.00310441
0.00295734
0.00281507
0.00267755
0.00254477
0.00241667
0.0022932
0.00217432
0.00205994
0.00195001
0.00184445
0.00174318
0.00164612
0.00155316
0.00146424
0.00137924
0.00129807
0.00122064
0.00114683
0.00107655
0.00100968
0.000946133
0.000885789
0.000828545
0.000774294
0.000722929
0.000674344
0.000628434
0.000585094
0.000544221
0.000505714
0.000469472
0.000435397
0.000403392
0.000373363
0.000345216
0.000318862
0.000294213
0.000271183
0.000249689
0.000229651
0.000210991
0.000193633
0.000177505
0.000162536
0.00014866
0.000135811
0.000123928
0.000112951
0.000102822
9.34888e-05
8.48982e-05
7.70012e-05
6.97509e-05
6.31029e-05
5.7015e-05
5.14472e-05
4.63619e-05
4.17233e-05
3.74979e-05
3.36543e-05
3.01627e-05
2.69953e-05
2.41261e-05
2.15308e-05
1.91865e-05
1.70722e-05
1.51682e-05
1.3456e-05
1.19187e-05
1.05406e-05
9.30713e-06
8.20485e-06
7.22141e-06
6.3454e-06
5.56639e-06
4.87479e-06
4.26183e-06
3.7195e-06
3.24049e-06
2.81816e-06
2.44646e-06
2.11991e-06
1.83356e-06
1.58291e-06
1.36394e-06
1.173e-06
1.00683e-06
8.62486e-07
7.37362e-07
6.29112e-07
5.35651e-07
4.55126e-07
3.85891e-07
3.26489e-07
2.75633e-07
2.32188e-07
1.95156e-07
1.63661e-07
1.36935e-07
1.14309e-07
9.51976e-08
7.90934e-08
6.55556e-08
5.42026e-08
4.47052e-08
3.67799e-08
3.0183e-08
2.47059e-08
2.01703e-08
1.64241e-08
1.33381e-08
1.08027e-08
0.0149724
0.0149513
0.0149352
0.0149119
0.0148809
0.0148419
0.0147947
0.0147391
0.0146747
0.0146016
0.0145195
0.0144283
0.0143281
0.0142188
0.0141005
0.0139733
0.0138372
0.0136925
0.0135394
0.0133781
0.0132088
0.0130318
0.0128475
0.0126563
0.0124584
0.0122542
0.0120442
0.0118288
0.0116084
0.0113834
0.0111542
0.0109214
0.0106852
0.0104463
0.010205
0.00996175
0.00971697
0.0094711
0.00922453
0.00897767
0.00873091
0.00848461
0.00823915
0.00799487
0.00775209
0.00751115
0.00727233
0.00703593
0.0068022
0.00657142
0.0063438
0.00611957
0.00589893
0.00568207
0.00546917
0.00526037
0.00505581
0.00485562
0.00465992
0.00446878
0.00428231
0.00410056
0.00392359
0.00375145
0.00358416
0.00342174
0.0032642
0.00311155
0.00296376
0.00282082
0.0026827
0.00254935
0.00242074
0.0022968
0.00217749
0.00206272
0.00195244
0.00184655
0.00174499
0.00164766
0.00155447
0.00146533
0.00138014
0.0012988
0.00122122
0.00114727
0.00107687
0.0010099
0.000946263
0.00088584
0.000828528
0.000774219
0.000722805
0.000674179
0.000628235
0.000584868
0.000543974
0.000505451
0.000469197
0.000435114
0.000403104
0.000373073
0.000344928
0.000318577
0.000293933
0.000270909
0.000249424
0.000229394
0.000210744
0.000193396
0.000177279
0.000162321
0.000148456
0.000135619
0.000123746
0.00011278
0.000102662
9.33393e-05
8.47588e-05
7.68716e-05
6.96308e-05
6.29918e-05
5.69125e-05
5.13528e-05
4.62751e-05
4.16437e-05
3.74252e-05
3.35879e-05
3.01022e-05
2.69404e-05
2.40763e-05
2.14857e-05
1.91458e-05
1.70356e-05
1.51352e-05
1.34264e-05
1.18922e-05
1.0517e-05
9.28606e-06
8.18611e-06
7.20478e-06
6.33068e-06
5.55339e-06
4.86333e-06
4.25175e-06
3.71065e-06
3.23275e-06
2.81139e-06
2.44056e-06
2.11479e-06
1.82911e-06
1.57907e-06
1.36062e-06
1.17014e-06
1.00437e-06
8.60385e-07
7.35566e-07
6.27582e-07
5.34352e-07
4.54025e-07
3.8496e-07
3.25705e-07
2.74974e-07
2.31636e-07
1.94695e-07
1.63277e-07
1.36616e-07
1.14045e-07
9.49801e-08
7.89147e-08
6.54092e-08
5.40831e-08
4.4608e-08
3.67011e-08
3.01195e-08
2.46549e-08
2.01295e-08
1.63916e-08
1.33124e-08
1.07824e-08
0.0153343
0.0153124
0.0152953
0.0152702
0.015237
0.0151952
0.0151447
0.0150851
0.0150164
0.0149382
0.0148507
0.0147536
0.014647
0.0145309
0.0144054
0.0142707
0.0141268
0.0139741
0.0138126
0.0136428
0.0134648
0.0132791
0.013086
0.0128858
0.012679
0.012466
0.0122472
0.0120231
0.011794
0.0115605
0.011323
0.011082
0.010838
0.0105913
0.0103424
0.0100919
0.00984
0.00958728
0.00933412
0.00908092
0.00882806
0.00857592
0.00832486
0.00807523
0.00782736
0.00758155
0.0073381
0.0070973
0.00685941
0.00662466
0.00639331
0.00616554
0.00594157
0.00572157
0.0055057
0.00529412
0.00508695
0.00488431
0.00468631
0.00449303
0.00430454
0.00412092
0.00394221
0.00376844
0.00359964
0.00343582
0.00327698
0.00312312
0.00297422
0.00283025
0.00269118
0.00255696
0.00242755
0.00230288
0.00218289
0.00206751
0.00195666
0.00185026
0.00174823
0.00165048
0.00155691
0.00146743
0.00138193
0.00130031
0.00122247
0.00114831
0.00107771
0.00101057
0.000946769
0.000886211
0.00082878
0.000774368
0.000722865
0.000674162
0.000628154
0.000584732
0.000543793
0.000505233
0.000468949
0.000434843
0.000402816
0.000372772
0.000344619
0.000318264
0.000293619
0.000270598
0.000249117
0.000229094
0.000210451
0.000193113
0.000177006
0.00016206
0.000148206
0.000135381
0.000123521
0.000112567
0.000102462
9.31512e-05
8.45827e-05
7.67073e-05
6.94779e-05
6.28499e-05
5.6781e-05
5.12314e-05
4.61633e-05
4.1541e-05
3.7331e-05
3.35017e-05
3.00236e-05
2.68688e-05
2.40113e-05
2.14268e-05
1.90925e-05
1.69875e-05
1.50919e-05
1.33875e-05
1.18574e-05
1.04858e-05
9.25826e-06
8.16137e-06
7.1828e-06
6.3112e-06
5.53616e-06
4.84814e-06
4.23838e-06
3.69891e-06
3.22246e-06
2.80241e-06
2.43273e-06
2.10797e-06
1.8232e-06
1.57395e-06
1.35621e-06
1.16634e-06
1.00111e-06
8.57589e-07
7.33178e-07
6.25547e-07
5.32623e-07
4.5256e-07
3.83723e-07
3.24663e-07
2.74099e-07
2.30903e-07
1.94083e-07
1.62768e-07
1.36194e-07
1.13696e-07
9.46926e-08
7.86787e-08
6.52161e-08
5.39257e-08
4.44803e-08
3.65978e-08
3.00363e-08
2.45882e-08
2.00762e-08
1.63493e-08
1.3279e-08
1.07562e-08
0.0158245
0.0158017
0.015783
0.0157556
0.0157193
0.0156736
0.0156184
0.0155535
0.0154785
0.0153936
0.0152985
0.0151932
0.0150778
0.0149524
0.0148171
0.014672
0.0145174
0.0143536
0.0141808
0.0139993
0.0138096
0.0136119
0.0134068
0.0131945
0.0129757
0.0127506
0.0125199
0.0122839
0.0120433
0.0117983
0.0115496
0.0112976
0.0110428
0.0107857
0.0105267
0.0102663
0.010005
0.0097431
0.00948111
0.00921941
0.00895839
0.00869843
0.00843989
0.0081831
0.0079284
0.00767609
0.00742647
0.00717979
0.00693632
0.0066963
0.00645995
0.00622746
0.00599903
0.00577483
0.00555501
0.0053397
0.00512904
0.00492312
0.00472205
0.00452589
0.00433472
0.00414859
0.00396754
0.00379159
0.00362076
0.00345506
0.00329447
0.003139
0.0029886
0.00284325
0.0027029
0.0025675
0.00243701
0.00231134
0.00219044
0.00207422
0.00196262
0.00185552
0.00175286
0.00165453
0.00156044
0.00147049
0.00138456
0.00130256
0.00122438
0.00114991
0.00107903
0.00101164
0.000947632
0.000886882
0.000829283
0.000774724
0.000723093
0.00067428
0.000628177
0.000584675
0.000543668
0.000505051
0.000468721
0.000434577
0.000402521
0.000372455
0.000344285
0.00031792
0.000293269
0.000270245
0.000248765
0.000228747
0.000210111
0.000192781
0.000176685
0.00016175
0.000147909
0.000135097
0.000123251
0.000112311
0.00010222
9.29237e-05
8.43693e-05
7.65077e-05
6.92917e-05
6.26767e-05
5.66204e-05
5.10828e-05
4.60262e-05
4.14148e-05
3.72152e-05
3.33957e-05
2.99267e-05
2.67805e-05
2.3931e-05
2.13539e-05
1.90266e-05
1.6928e-05
1.50383e-05
1.33393e-05
1.18142e-05
1.04471e-05
9.22373e-06
8.13061e-06
7.15547e-06
6.28697e-06
5.51473e-06
4.82922e-06
4.22173e-06
3.68429e-06
3.20965e-06
2.79121e-06
2.42296e-06
2.09948e-06
1.81583e-06
1.56758e-06
1.3507e-06
1.1616e-06
9.97036e-07
8.54102e-07
7.30199e-07
6.2301e-07
5.30468e-07
4.50735e-07
3.82181e-07
3.23364e-07
2.73009e-07
2.29991e-07
1.93322e-07
1.62135e-07
1.35669e-07
1.13263e-07
9.43357e-08
7.83859e-08
6.49768e-08
5.37309e-08
4.43222e-08
3.64702e-08
2.99336e-08
2.4506e-08
2.00108e-08
1.62974e-08
1.32381e-08
1.07243e-08
0.0164478
0.0164238
0.016403
0.0163726
0.0163321
0.0162814
0.0162201
0.016148
0.0160651
0.0159711
0.0158661
0.0157502
0.0156234
0.0154858
0.0153377
0.0151793
0.0150108
0.0148327
0.0146452
0.0144488
0.0142439
0.0140309
0.0138103
0.0135827
0.0133484
0.0131081
0.0128622
0.0126112
0.0123558
0.0120964
0.0118335
0.0115676
0.0112993
0.011029
0.0107573
0.0104846
0.0102113
0.00993787
0.0096648
0.00939245
0.00912121
0.00885147
0.00858357
0.00831784
0.00805462
0.0077942
0.00753685
0.00728284
0.00703242
0.00678582
0.00654323
0.00630486
0.00607088
0.00584144
0.00561669
0.00539675
0.00518173
0.00497173
0.00476683
0.00456709
0.00437257
0.00418331
0.00399934
0.00382068
0.00364732
0.00347927
0.00331651
0.00315901
0.00300674
0.00285966
0.00271772
0.00258085
0.002449
0.0023221
0.00220005
0.00208279
0.00197023
0.00186226
0.00175881
0.00165976
0.00156501
0.00147446
0.00138799
0.00130551
0.00122689
0.00115203
0.00108081
0.00101311
0.000948822
0.000887828
0.000830014
0.000775267
0.000723472
0.000674516
0.00062829
0.000584683
0.000543586
0.000504895
0.000468503
0.000434308
0.000402212
0.000372114
0.000343921
0.000317538
0.000292876
0.000269847
0.000248366
0.00022835
0.00020972
0.000192399
0.000176313
0.00016139
0.000147563
0.000134766
0.000122935
0.000112011
0.000101936
9.2656e-05
8.41177e-05
7.6272e-05
6.90716e-05
6.24718e-05
5.64302e-05
5.09067e-05
4.58636e-05
4.1265e-05
3.70776e-05
3.32696e-05
2.98114e-05
2.66753e-05
2.38353e-05
2.12671e-05
1.8948e-05
1.6857e-05
1.49743e-05
1.32818e-05
1.17625e-05
1.04009e-05
9.18247e-06
8.09385e-06
7.12279e-06
6.258e-06
5.4891e-06
4.8066e-06
4.20181e-06
3.66679e-06
3.19431e-06
2.7778e-06
2.41127e-06
2.08931e-06
1.80701e-06
1.55994e-06
1.34411e-06
1.15593e-06
9.92162e-07
8.49928e-07
7.26634e-07
6.19974e-07
5.27889e-07
4.48551e-07
3.80337e-07
3.21812e-07
2.71706e-07
2.28901e-07
1.92413e-07
1.61379e-07
1.35043e-07
1.12745e-07
9.39102e-08
7.8037e-08
6.46918e-08
5.3499e-08
4.41343e-08
3.63185e-08
2.98118e-08
2.44086e-08
1.99332e-08
1.62361e-08
1.31899e-08
1.06866e-08
0.0172103
0.0171847
0.0171613
0.0171269
0.0170813
0.017024
0.016955
0.0168739
0.0167807
0.0166753
0.0165579
0.0164285
0.0162872
0.0161344
0.0159702
0.015795
0.0156092
0.0154132
0.0152075
0.0149925
0.0147688
0.0145369
0.0142973
0.0140506
0.0137974
0.0135383
0.0132739
0.0130046
0.0127312
0.0124541
0.0121739
0.0118913
0.0116066
0.0113204
0.0110333
0.0107456
0.010458
0.0101707
0.00988431
0.00959916
0.00931567
0.00903419
0.00875507
0.00847865
0.00820522
0.00793509
0.00766852
0.00740576
0.00714704
0.00689258
0.00664256
0.00639717
0.00615656
0.00592089
0.00569026
0.0054648
0.00524459
0.00502973
0.00482027
0.00461627
0.00441776
0.00422478
0.00403734
0.00385543
0.00367907
0.00350822
0.00334286
0.00318296
0.00302846
0.00287932
0.00273548
0.00259686
0.0024634
0.00233501
0.0022116
0.0020931
0.00197939
0.00187039
0.00176598
0.00166607
0.00157053
0.00147927
0.00139217
0.00130911
0.00122997
0.00115464
0.001083
0.00101493
0.000950305
0.000889018
0.000830946
0.000775971
0.000723977
0.000674849
0.000628474
0.000584739
0.000543533
0.00050475
0.000468282
0.000434025
0.000401878
0.000371741
0.000343517
0.000317112
0.000292436
0.000269398
0.000247914
0.000227899
0.000209274
0.000191962
0.000175887
0.000160978
0.000147165
0.000134384
0.000122571
0.000111665
0.000101609
9.23469e-05
8.38271e-05
7.59996e-05
6.88171e-05
6.22346e-05
5.62099e-05
5.07026e-05
4.5675e-05
4.10913e-05
3.69179e-05
3.31232e-05
2.96775e-05
2.65532e-05
2.37242e-05
2.11662e-05
1.88567e-05
1.67744e-05
1.48999e-05
1.32148e-05
1.17025e-05
1.03472e-05
9.13446e-06
8.05108e-06
7.08477e-06
6.22428e-06
5.45926e-06
4.78026e-06
4.17862e-06
3.64642e-06
3.17646e-06
2.7622e-06
2.39767e-06
2.07747e-06
1.79674e-06
1.55105e-06
1.33644e-06
1.14932e-06
9.86492e-07
8.45072e-07
7.22488e-07
6.16443e-07
5.24891e-07
4.46012e-07
3.78194e-07
3.20008e-07
2.70192e-07
2.27634e-07
1.91357e-07
1.60501e-07
1.34316e-07
1.12146e-07
9.34168e-08
7.76327e-08
6.43618e-08
5.32306e-08
4.3917e-08
3.61433e-08
2.96711e-08
2.42962e-08
1.98439e-08
1.61655e-08
1.31344e-08
1.06434e-08
0.0181195
0.0180919
0.0180652
0.018026
0.0179738
0.0179084
0.0178296
0.0177372
0.0176313
0.0175118
0.0173788
0.0172327
0.0170736
0.0169019
0.0167179
0.0165222
0.0163151
0.0160974
0.0158694
0.0156319
0.0153854
0.0151306
0.0148681
0.0145986
0.0143227
0.0140412
0.0137546
0.0134635
0.0131687
0.0128707
0.0125702
0.0122676
0.0119637
0.0116588
0.0113536
0.0110484
0.0107439
0.0104405
0.0101385
0.00983847
0.00954069
0.00924554
0.00895338
0.00866452
0.00837926
0.00809787
0.0078206
0.0075477
0.00727937
0.00701581
0.0067572
0.00650369
0.00625543
0.00601254
0.00577513
0.0055433
0.00531711
0.00509663
0.00488191
0.00467299
0.00446988
0.00427261
0.00408116
0.00389553
0.0037157
0.00354162
0.00337327
0.0032106
0.00305354
0.00290202
0.00275599
0.00261535
0.00248003
0.00234993
0.00222496
0.00210501
0.00198999
0.00187978
0.00177428
0.00167337
0.00157693
0.00148485
0.00139701
0.00131328
0.00123354
0.00115767
0.00108555
0.00101704
0.000952041
0.000890415
0.000832043
0.000776805
0.000724581
0.000675254
0.000628705
0.000584822
0.000543491
0.000504601
0.000468044
0.000433714
0.000401507
0.000371324
0.000343064
0.000316634
0.000291939
0.000268891
0.000247402
0.000227389
0.000208769
0.000191466
0.000175403
0.000160509
0.000146714
0.000133951
0.000122157
0.000111272
0.000101236
9.1995e-05
8.34961e-05
7.56893e-05
6.85271e-05
6.19644e-05
5.59588e-05
5.047e-05
4.54601e-05
4.08932e-05
3.67358e-05
3.29563e-05
2.95249e-05
2.6414e-05
2.35975e-05
2.10512e-05
1.87524e-05
1.66802e-05
1.4815e-05
1.31385e-05
1.1634e-05
1.02858e-05
9.07969e-06
8.00228e-06
7.0414e-06
6.18581e-06
5.42523e-06
4.75023e-06
4.15217e-06
3.62319e-06
3.15611e-06
2.7444e-06
2.38215e-06
2.06398e-06
1.78503e-06
1.54092e-06
1.32769e-06
1.1418e-06
9.8003e-07
8.3954e-07
7.17764e-07
6.12421e-07
5.21476e-07
4.43122e-07
3.75754e-07
3.17955e-07
2.6847e-07
2.26194e-07
1.90156e-07
1.59504e-07
1.33491e-07
1.11464e-07
9.28567e-08
7.71739e-08
6.39875e-08
5.29264e-08
4.36708e-08
3.59449e-08
2.95119e-08
2.41691e-08
1.9743e-08
1.60858e-08
1.30719e-08
1.05947e-08
0.019185
0.019155
0.0191242
0.0190789
0.0190186
0.018943
0.0188521
0.0187458
0.018624
0.0184871
0.0183351
0.0181684
0.0179875
0.0177927
0.0175847
0.0173641
0.0171314
0.0168875
0.0166328
0.0163684
0.0160947
0.0158128
0.0155232
0.0152267
0.0149242
0.0146163
0.0143037
0.0139873
0.0136676
0.0133453
0.0130211
0.0126956
0.0123693
0.0120429
0.0117169
0.0113917
0.0110679
0.0107459
0.0104262
0.0101091
0.00979499
0.00948429
0.0091773
0.00887431
0.00857561
0.00828145
0.00799206
0.00770767
0.00742847
0.00715462
0.0068863
0.00662362
0.00636672
0.00611569
0.00587063
0.0056316
0.00539867
0.00517186
0.00495122
0.00473676
0.00452847
0.00432637
0.00413041
0.00394059
0.00375685
0.00357915
0.00340744
0.00324164
0.00308169
0.00292751
0.00277902
0.00263611
0.0024987
0.00236668
0.00223994
0.00211838
0.00200188
0.00189033
0.0017836
0.00168157
0.00158411
0.00149111
0.00140244
0.00131796
0.00123754
0.00116107
0.0010884
0.00101941
0.000953982
0.000891975
0.000833268
0.000777735
0.000725253
0.000675701
0.000628959
0.00058491
0.000543437
0.000504427
0.000467771
0.000433359
0.000401087
0.000370851
0.000342552
0.000316092
0.000291378
0.000268319
0.000246825
0.000226813
0.0002082
0.000190907
0.000174859
0.000159981
0.000146205
0.000133463
0.000121691
0.000110829
0.000100816
9.15989e-05
8.31236e-05
7.534e-05
6.82007e-05
6.16603e-05
5.56763e-05
5.02083e-05
4.52183e-05
4.06704e-05
3.6531e-05
3.27685e-05
2.93532e-05
2.62574e-05
2.3455e-05
2.09218e-05
1.86353e-05
1.65744e-05
1.47196e-05
1.30527e-05
1.1557e-05
1.02169e-05
9.01816e-06
7.94746e-06
6.99267e-06
6.14261e-06
5.38701e-06
4.7165e-06
4.12247e-06
3.59711e-06
3.13326e-06
2.72443e-06
2.36474e-06
2.04884e-06
1.7719e-06
1.52956e-06
1.31789e-06
1.13335e-06
9.72786e-07
8.33338e-07
7.1247e-07
6.07914e-07
5.17651e-07
4.39884e-07
3.73022e-07
3.15657e-07
2.66542e-07
2.24583e-07
1.88814e-07
1.58389e-07
1.32568e-07
1.10703e-07
9.22311e-08
7.66618e-08
6.35698e-08
5.25871e-08
4.33963e-08
3.57239e-08
2.93348e-08
2.40278e-08
1.96308e-08
1.59973e-08
1.30025e-08
1.05407e-08
0.0204183
0.0203854
0.0203496
0.0202966
0.0202262
0.0201381
0.0200322
0.0199086
0.0197674
0.019609
0.0194337
0.019242
0.0190346
0.018812
0.018575
0.0183245
0.0180612
0.0177859
0.0174997
0.0172033
0.0168978
0.0165839
0.0162626
0.0159347
0.0156012
0.0152628
0.0149204
0.0145746
0.0142264
0.0138763
0.0135251
0.0131735
0.0128219
0.0124711
0.0121215
0.0117737
0.0114281
0.0110853
0.0107456
0.0104094
0.0100771
0.00974898
0.00942541
0.00910665
0.00879296
0.00848458
0.00818171
0.00788454
0.00759325
0.00730799
0.00702888
0.00675604
0.00648956
0.00622952
0.00597598
0.005729
0.0054886
0.0052548
0.0050276
0.00480702
0.00459301
0.00438557
0.00418464
0.00399018
0.00380214
0.00362044
0.00344501
0.00327578
0.00311265
0.00295553
0.00280431
0.00265891
0.00251919
0.00238505
0.00225638
0.00213304
0.00201491
0.00190187
0.00179379
0.00169053
0.00159196
0.00149795
0.00140836
0.00132305
0.0012419
0.00116476
0.00109149
0.00102198
0.000956075
0.000893651
0.000834576
0.00077872
0.000725956
0.000676159
0.000629206
0.000584975
0.000543348
0.000504209
0.000467445
0.000432945
0.000400601
0.00037031
0.000341968
0.000315478
0.000290743
0.000267672
0.000246175
0.000226165
0.00020756
0.00019028
0.000174248
0.00015939
0.000145635
0.000132917
0.00012117
0.000110333
0.000100347
9.11567e-05
8.27078e-05
7.49505e-05
6.78367e-05
6.13214e-05
5.53615e-05
4.99168e-05
4.4949e-05
4.04224e-05
3.63031e-05
3.25597e-05
2.91623e-05
2.60832e-05
2.32965e-05
2.0778e-05
1.85051e-05
1.64568e-05
1.46136e-05
1.29574e-05
1.14715e-05
1.01404e-05
8.94985e-06
7.88661e-06
6.93859e-06
6.09466e-06
5.34461e-06
4.67908e-06
4.08954e-06
3.56818e-06
3.10792e-06
2.70229e-06
2.34544e-06
2.03206e-06
1.75735e-06
1.51697e-06
1.30703e-06
1.12401e-06
9.64765e-07
8.26474e-07
7.06612e-07
6.02929e-07
5.1342e-07
4.36304e-07
3.70002e-07
3.13117e-07
2.64413e-07
2.22803e-07
1.87331e-07
1.57158e-07
1.31549e-07
1.09863e-07
9.15414e-08
7.60974e-08
6.31097e-08
5.22136e-08
4.30944e-08
3.54808e-08
2.91401e-08
2.38726e-08
1.95078e-08
1.59003e-08
1.29266e-08
1.04817e-08
0.0218337
0.0217971
0.021755
0.0216926
0.0216096
0.0215058
0.0213814
0.0212365
0.0210714
0.0208867
0.0206829
0.0204608
0.0202212
0.0199651
0.0196934
0.0194071
0.0191073
0.0187952
0.0184717
0.018138
0.0177951
0.0174441
0.0170861
0.0167221
0.0163529
0.0159796
0.0156031
0.0152241
0.0148435
0.014462
0.0140804
0.0136994
0.0133195
0.0129413
0.0125655
0.0121925
0.0118228
0.0114568
0.011095
0.0107376
0.0103852
0.0100379
0.00969609
0.00935999
0.00902984
0.00870584
0.00838818
0.00807702
0.0077725
0.00747475
0.00718385
0.00689991
0.00662297
0.0063531
0.00609032
0.00583467
0.00558613
0.00534471
0.00511039
0.00488314
0.00466292
0.00444967
0.00424333
0.00404384
0.00385111
0.00366507
0.00348562
0.00331265
0.00314607
0.00298576
0.0028316
0.00268348
0.00254127
0.00240484
0.00227406
0.0021488
0.00202891
0.00191427
0.00180472
0.00170013
0.00160035
0.00150525
0.00141467
0.00132847
0.00124652
0.00116866
0.00109476
0.00102467
0.000958262
0.00089539
0.000835919
0.000779717
0.000726651
0.000676592
0.000629413
0.000584989
0.000543198
0.000503922
0.000467044
0.000432451
0.000400033
0.000369684
0.000341299
0.000314778
0.000290023
0.000266942
0.000245442
0.000225437
0.000206843
0.000189578
0.000173566
0.00015873
0.000145001
0.00013231
0.000120591
0.000109784
9.98274e-05
9.06664e-05
8.22473e-05
7.45192e-05
6.74341e-05
6.09465e-05
5.50136e-05
4.95947e-05
4.46516e-05
4.01485e-05
3.60516e-05
3.23292e-05
2.89517e-05
2.58912e-05
2.31219e-05
2.06196e-05
1.83617e-05
1.63272e-05
1.44969e-05
1.28525e-05
1.13774e-05
1.00563e-05
8.87473e-06
7.81972e-06
6.87916e-06
6.04199e-06
5.29803e-06
4.63799e-06
4.05337e-06
3.53643e-06
3.08011e-06
2.678e-06
2.32427e-06
2.01365e-06
1.74139e-06
1.50317e-06
1.29512e-06
1.11377e-06
9.55979e-07
8.18956e-07
7.00197e-07
5.97471e-07
5.08789e-07
4.32387e-07
3.66699e-07
3.10339e-07
2.62085e-07
2.20858e-07
1.85711e-07
1.55814e-07
1.30438e-07
1.08947e-07
9.07892e-08
7.5482e-08
6.26083e-08
5.18068e-08
4.27657e-08
3.52164e-08
2.89284e-08
2.3704e-08
1.93742e-08
1.57952e-08
1.28443e-08
1.04179e-08
0.0234485
0.0234075
0.0233573
0.023283
0.0231843
0.023061
0.0229135
0.0227422
0.0225476
0.0223305
0.0220919
0.0218328
0.0215544
0.0212579
0.0209446
0.0206158
0.0202729
0.0199172
0.0195501
0.0191729
0.0187868
0.0183931
0.0179929
0.0175875
0.0171779
0.016765
0.0163499
0.0159335
0.0155167
0.0151001
0.0146846
0.0142709
0.0138596
0.0134513
0.0130465
0.0126458
0.0122495
0.0118582
0.0114721
0.0110918
0.0107173
0.0103492
0.00998751
0.00963257
0.00928456
0.00894364
0.00860997
0.00828368
0.00796486
0.00765362
0.00735001
0.00705409
0.00676589
0.00648542
0.0062127
0.00594772
0.00569044
0.00544083
0.00519886
0.00496445
0.00473755
0.00451807
0.00430593
0.00410105
0.00390331
0.00371261
0.00352884
0.00335188
0.0031816
0.00301788
0.00286058
0.00270956
0.00256468
0.0024258
0.00229278
0.00216546
0.0020437
0.00192734
0.00181623
0.00171022
0.00160916
0.00151289
0.00142126
0.00133412
0.00125132
0.0011727
0.00109812
0.00102743
0.000960479
0.000897132
0.000837246
0.000780679
0.000727295
0.000676962
0.000629546
0.000584921
0.00054296
0.000503541
0.000466546
0.000431858
0.000399365
0.000368957
0.000340529
0.000313979
0.000289207
0.000266118
0.000244619
0.000224622
0.000206042
0.000188796
0.000172807
0.000157998
0.000144298
0.000131637
0.000119951
0.000109176
9.92536e-05
9.01261e-05
8.17401e-05
7.40446e-05
6.69913e-05
6.05346e-05
5.46315e-05
4.92412e-05
4.43255e-05
3.98484e-05
3.57761e-05
3.20769e-05
2.87212e-05
2.56812e-05
2.29309e-05
2.04464e-05
1.82049e-05
1.61858e-05
1.43694e-05
1.2738e-05
1.12748e-05
9.96445e-06
8.7928e-06
7.74677e-06
6.81438e-06
5.98458e-06
5.24727e-06
4.59323e-06
4.01399e-06
3.50187e-06
3.04985e-06
2.65157e-06
2.30124e-06
1.99364e-06
1.72404e-06
1.48817e-06
1.28219e-06
1.10264e-06
9.46436e-07
8.10793e-07
6.93234e-07
5.91548e-07
5.03766e-07
4.28139e-07
3.63117e-07
3.07329e-07
2.59562e-07
2.18751e-07
1.83958e-07
1.54359e-07
1.29235e-07
1.07956e-07
8.9976e-08
7.48172e-08
6.20669e-08
5.13677e-08
4.24112e-08
3.49315e-08
2.87004e-08
2.35225e-08
1.92306e-08
1.56822e-08
1.2756e-08
1.03494e-08
0.0252841
0.0252374
0.0251772
0.0250878
0.0249691
0.0248213
0.0246449
0.0244405
0.0242093
0.0239523
0.023671
0.0233668
0.0230413
0.0226962
0.0223332