/*--------------------------------*- C++ -*----------------------------------*\
| =========                 |                                                 |
| \\      /  F ield         | OpenFOAM: The Open Source CFD Toolbox           |
|  \\    /   O peration     | Version:  plus                                  |
|   \\  /    A nd           | Website:  www.openfoam.com                      |
|    \\/     M anipulation  |                                                 |
\*---------------------------------------------------------------------------*/
FoamFile
{
    version     2.0;
    format      ascii;
    class       volVectorField;
    location    "0";
    object      U;
}
// * * * * * * * * * * * * * * * * * * * * * * * * * * * * * * * * * * * * * //

dimensions      [0 1 -1 0 0 0 0];


internalField   nonuniform List<vector> 
12225
(
(9.9305 0.0139998 0)
(9.7832 0.00881008 0)
(9.63343 0.00793369 0)
(9.49493 0.0067629 0)
(9.36831 0.0052614 0)
(9.25562 0.00337169 0)
(9.15925 0.00100508 0)
(9.08205 -0.00197278 0)
(9.02771 -0.00576668 0)
(9.00126 -0.0106961 0)
(9.0098 -0.0172785 0)
(9.06399 -0.0263959 0)
(9.18078 -0.0396599 0)
(9.38923 -0.0603039 0)
(9.74484 -0.0957238 0)
(10.3721 -0.166439 0)
(11.6316 -0.348399 0)
(15.0638 -1.05578 0)
(9.92939 -0.124938 0)
(9.7819 -0.129899 0)
(9.63297 -0.130868 0)
(9.4943 -0.132318 0)
(9.36747 -0.134402 0)
(9.25453 -0.137336 0)
(9.15782 -0.141426 0)
(9.08016 -0.147111 0)
(9.02518 -0.155042 0)
(8.99778 -0.166211 0)
(9.00486 -0.182201 0)
(9.05665 -0.205678 0)
(9.16919 -0.241463 0)
(9.36924 -0.299078 0)
(9.70539 -0.399752 0)
(10.274 -0.599252 0)
(11.271 -1.08014 0)
(12.8291 -2.62208 0)
(9.92945 -0.339127 0)
(9.78193 -0.338825 0)
(9.63288 -0.339288 0)
(9.49408 -0.340269 0)
(9.36704 -0.342062 0)
(9.25377 -0.34506 0)
(9.15655 -0.34981 0)
(9.07812 -0.35708 0)
(9.02196 -0.367986 0)
(8.99271 -0.384212 0)
(8.99683 -0.408411 0)
(9.04368 -0.444994 0)
(9.14738 -0.501784 0)
(9.33018 -0.593819 0)
(9.62808 -0.753007 0)
(10.0963 -1.05558 0)
(10.7795 -1.70722 0)
(11.3849 -3.29402 0)
(9.92947 -0.455449 0)
(9.78186 -0.455486 0)
(9.6326 -0.456569 0)
(9.49356 -0.458495 0)
(9.36614 -0.461668 0)
(9.2523 -0.466641 0)
(9.15422 -0.47418 0)
(9.07449 -0.485363 0)
(9.01637 -0.501752 0)
(8.9841 -0.525686 0)
(8.98344 -0.560808 0)
(9.02238 -0.613077 0)
(9.11229 -0.692794 0)
(9.26918 -0.818956 0)
(9.51382 -1.02916 0)
(9.86205 -1.40288 0)
(10.2673 -2.11216 0)
(10.3888 -3.47785 0)
(9.92944 -0.559645 0)
(9.78163 -0.560074 0)
(9.63206 -0.561906 0)
(9.49263 -0.564964 0)
(9.36463 -0.56976 0)
(9.24992 -0.577 0)
(9.15055 -0.587662 0)
(9.06892 -0.603123 0)
(9.00795 -0.62536 0)
(8.97134 -0.657304 0)
(8.96391 -0.703446 0)
(8.99188 -0.770959 0)
(9.06323 -0.871809 0)
(9.187 -1.02687 0)
(9.36929 -1.274 0)
(9.597 -1.68249 0)
(9.7862 -2.36947 0)
(9.6673 -3.46246 0)
(9.92935 -0.652158 0)
(9.78122 -0.653029 0)
(9.63117 -0.655725 0)
(9.49117 -0.660086 0)
(9.36233 -0.66672 0)
(9.2464 -0.676477 0)
(9.14526 -0.690532 0)
(9.06103 -0.710532 0)
(8.99623 -0.738818 0)
(8.95387 -0.778806 0)
(8.93761 -0.83562 0)
(8.95168 -0.917186 0)
(9.00038 -1.03613 0)
(9.08605 -1.21304 0)
(9.20313 -1.48149 0)
(9.32219 -1.89351 0)
(9.3564 -2.51418 0)
(9.12317 -3.36275 0)
(9.92918 -0.733364 0)
(9.78055 -0.734724 0)
(9.62985 -0.738384 0)
(9.48906 -0.744194 0)
(9.35908 -0.752846 0)
(9.24152 -0.765314 0)
(9.13805 -0.782948 0)
(9.05046 -0.807621 0)
(8.98077 -0.84196 0)
(8.93122 -0.889719 0)
(8.90418 -0.956375 0)
(8.90176 -1.05007 0)
(8.92476 -1.18307 0)
(8.97002 -1.37376 0)
(9.02431 -1.64867 0)
(9.05265 -2.04134 0)
(8.98193 -2.57813 0)
(8.69953 -3.23057 0)
(9.92892 -0.803573 0)
(9.77959 -0.805461 0)
(9.628 -0.810168 0)
(9.48614 -0.817543 0)
(9.35468 -0.828344 0)
(9.23504 -0.84365 0)
(9.12863 -0.864948 0)
(9.03688 -0.894276 0)
(8.96124 -0.934444 0)
(8.90309 -0.989369 0)
(8.86351 -1.06456 0)
(8.84259 -1.16784 0)
(8.83821 -1.31018 0)
(8.84326 -1.50653 0)
(8.84096 -1.77542 0)
(8.79793 -2.13446 0)
(8.65964 -2.58606 0)
(8.36137 -3.08814 0)
(9.92855 -0.863021 0)
(9.77827 -0.865469 0)
(9.62552 -0.871279 0)
(9.48228 -0.880297 0)
(9.34894 -0.893325 0)
(9.22672 -0.911512 0)
(9.11674 -0.936437 0)
(9.02 -0.970231 0)
(8.93737 -1.01577 0)
(8.86938 -1.07692 0)
(8.81585 -1.15893 0)
(8.7752 -1.26879 0)
(8.7431 -1.41556 0)
(8.71032 -1.61018 0)
(8.65968 -1.86371 0)
(8.56321 -2.18212 0)
(8.38367 -2.5556 0)
(8.08617 -2.94422 0)
(9.92804 -0.911868 0)
(9.77654 -0.914897 0)
(9.62231 -0.921835 0)
(9.47733 -0.932531 0)
(9.34169 -0.947794 0)
(9.21637 -0.96881 0)
(9.10215 -0.997193 0)
(8.99963 -1.03508 0)
(8.90908 -1.08528 0)
(8.83022 -1.15144 0)
(8.76182 -1.23822 0)
(8.701 -1.35145 0)
(8.64214 -1.49795 0)
(8.57543 -1.68474 0)
(8.48539 -1.91685 0)
(8.35066 -2.1929 0)
(8.14761 -2.49867 0)
(7.85884 -2.80174 0)
(9.92738 -0.950188 0)
(9.77432 -0.954086 0)
(9.61827 -0.962157 0)
(9.47117 -0.974533 0)
(9.33278 -0.991986 0)
(9.20381 -1.01569 0)
(9.08473 -1.04724 0)
(8.9757 -1.08869 0)
(8.87644 -1.14265 0)
(8.786 -1.21236 0)
(8.70233 -1.30171 0)
(8.62174 -1.41516 0)
(8.53813 -1.55728 0)
(8.44226 -1.73172 0)
(8.32139 -1.93922 0)
(8.16042 -2.17461 0)
(7.94546 -2.42359 0)
(7.6689 -2.6619 0)
(9.9265 -0.988571 0)
(9.77169 -0.992542 0)
(9.61371 -1.0016 0)
(9.46428 -1.01538 0)
(9.32294 -1.0346 0)
(9.19015 -1.06043 0)
(9.06607 -1.09437 0)
(8.95051 -1.13833 0)
(8.84276 -1.19465 0)
(8.74137 -1.26607 0)
(8.64382 -1.35568 0)
(8.54611 -1.46664 0)
(8.44232 -1.60164 0)
(8.32434 -1.76189 0)
(8.18219 -1.94559 0)
(8.00546 -2.14617 0)
(7.7862 -2.3511 0)
(7.52153 -2.54293 0)
(9.92579 -1.02201 0)
(9.76896 -1.02544 0)
(9.60849 -1.0354 0)
(9.45646 -1.05035 0)
(9.31188 -1.07102 0)
(9.17494 -1.09849 0)
(9.04554 -1.13414 0)
(8.92317 -1.17969 0)
(8.80677 -1.2371 0)
(8.69454 -1.30859 0)
(8.58372 -1.39641 0)
(8.47031 -1.50255 0)
(8.34891 -1.62819 0)
(8.21282 -1.77288 0)
(8.05461 -1.93354 0)
(7.86749 -2.10356 0)
(7.64727 -2.27273 0)
(7.39322 -2.42873 0)
(9.92495 -1.02791 0)
(9.76539 -1.03161 0)
(9.60154 -1.04261 0)
(9.44618 -1.05887 0)
(9.29749 -1.08107 0)
(9.15541 -1.11017 0)
(9.01957 -1.14736 0)
(8.88915 -1.19405 0)
(8.76283 -1.25176 0)
(8.6386 -1.32204 0)
(8.51367 -1.40625 0)
(8.38436 -1.50526 0)
(8.24616 -1.61897 0)
(8.094 -1.7458 0)
(7.9229 -1.88213 0)
(7.72898 -2.0221 0)
(7.51061 -2.15797 0)
(7.26826 -2.2814 0)
(9.92372 -1.00168 0)
(9.76049 -1.00594 0)
(9.59225 -1.01801 0)
(9.43264 -1.03556 0)
(9.27882 -1.05917 0)
(9.13049 -1.08962 0)
(8.98703 -1.12782 0)
(8.8474 -1.17479 0)
(8.71013 -1.23151 0)
(8.57321 -1.29885 0)
(8.43408 -1.37731 0)
(8.28965 -1.46681 0)
(8.13653 -1.56637 0)
(7.97128 -1.67385 0)
(7.79099 -1.78576 0)
(7.59386 -1.89742 0)
(7.37977 -2.00341 0)
(7.1497 -2.09841 0)
(9.92204 -0.944137 0)
(9.75393 -0.948845 0)
(9.58006 -0.961743 0)
(9.41513 -0.980238 0)
(9.25507 -1.00474 0)
(9.09937 -1.03576 0)
(8.94724 -1.07389 0)
(8.79755 -1.11969 0)
(8.64883 -1.17361 0)
(8.49928 -1.23586 0)
(8.34678 -1.30624 0)
(8.18906 -1.38403 0)
(8.02381 -1.46781 0)
(7.84906 -1.55541 0)
(7.66338 -1.64391 0)
(7.46627 -1.72993 0)
(7.25827 -1.80993 0)
(7.04034 -1.88075 0)
(9.91982 -0.850985 0)
(9.74547 -0.855963 0)
(9.56455 -0.86919 0)
(9.39318 -0.887947 0)
(9.22581 -0.912409 0)
(9.0618 -0.942803 0)
(8.90031 -0.979344 0)
(8.74024 -1.02216 0)
(8.58032 -1.07122 0)
(8.41909 -1.12622 0)
(8.25504 -1.18654 0)
(8.08668 -1.25114 0)
(7.9127 -1.31857 0)
(7.73215 -1.38696 0)
(7.54456 -1.45417 0)
(7.35006 -1.51794 0)
(7.14938 -1.57616 0)
(6.9433 -1.62703 0)
(9.91703 -0.7155 0)
(9.73506 -0.720547 0)
(9.54573 -0.733324 0)
(9.36689 -0.751319 0)
(9.19138 -0.774467 0)
(9.01853 -0.8027 0)
(8.84755 -0.835896 0)
(8.67752 -0.873832 0)
(8.50747 -0.916128 0)
(8.33637 -0.962204 0)
(8.1633 -1.01125 0)
(7.98742 -1.06224 0)
(7.80815 -1.11391 0)
(7.62515 -1.1649 0)
(7.43844 -1.21377 0)
(7.24835 -1.25915 0)
(7.05553 -1.29986 0)
(6.8605 -1.33499 0)
(9.91364 -0.528004 0)
(9.72302 -0.534172 0)
(9.52443 -0.545398 0)
(9.33738 -0.561397 0)
(9.15332 -0.581813 0)
(8.97166 -0.606314 0)
(8.79174 -0.634535 0)
(8.61289 -0.666037 0)
(8.43444 -0.70028 0)
(8.2558 -0.736609 0)
(8.07648 -0.774259 0)
(7.89611 -0.812369 0)
(7.71451 -0.850024 0)
(7.53166 -0.886298 0)
(7.34773 -0.920312 0)
(7.16302 -0.951288 0)
(6.97795 -0.978594 0)
(6.79275 -1.00177 0)
(9.90895 -0.342918 0)
(9.71157 -0.349996 0)
(9.50746 -0.359434 0)
(9.31363 -0.373096 0)
(9.12298 -0.390454 0)
(8.93492 -0.411039 0)
(8.7489 -0.434377 0)
(8.56441 -0.459965 0)
(8.38098 -0.487247 0)
(8.19826 -0.515622 0)
(8.01597 -0.544449 0)
(7.83395 -0.573071 0)
(7.65216 -0.600837 0)
(7.47067 -0.627137 0)
(7.28967 -0.651429 0)
(7.1094 -0.673259 0)
(6.9302 -0.692279 0)
(6.75204 -0.70825 0)
(9.90548 -0.202745 0)
(9.70349 -0.209016 0)
(9.49589 -0.217128 0)
(9.2975 -0.228851 0)
(9.10252 -0.243672 0)
(8.9104 -0.261116 0)
(8.72064 -0.280712 0)
(8.53283 -0.301978 0)
(8.34661 -0.324411 0)
(8.16173 -0.347495 0)
(7.97802 -0.370703 0)
(7.79541 -0.393522 0)
(7.6139 -0.415467 0)
(7.43358 -0.436104 0)
(7.25458 -0.455063 0)
(7.0771 -0.47205 0)
(6.90133 -0.486862 0)
(6.72699 -0.499386 0)
(9.90297 -0.0873043 0)
(9.69754 -0.0927547 0)
(9.48728 -0.0997225 0)
(9.28554 -0.109754 0)
(9.08743 -0.122372 0)
(8.89243 -0.137137 0)
(8.70008 -0.153621 0)
(8.51002 -0.171393 0)
(8.32198 -0.19002 0)
(8.13575 -0.209065 0)
(7.95123 -0.228103 0)
(7.76836 -0.246731 0)
(7.58718 -0.264579 0)
(7.40775 -0.281324 0)
(7.23018 -0.296698 0)
(7.0546 -0.310496 0)
(6.88115 -0.322578 0)
(6.7093 -0.332869 0)
(9.90097 0.00559415 0)
(9.69296 0.000581568 0)
(9.48084 -0.0054492 0)
(9.27664 -0.0140509 0)
(9.07627 -0.0247997 0)
(8.8792 -0.037312 0)
(8.68502 -0.0512161 0)
(8.49341 -0.0661433 0)
(8.30411 -0.0817274 0)
(8.11699 -0.0976092 0)
(7.93193 -0.113445 0)
(7.74893 -0.128914 0)
(7.56799 -0.143731 0)
(7.38919 -0.157649 0)
(7.2126 -0.170466 0)
(7.03832 -0.182029 0)
(6.86643 -0.192227 0)
(6.69621 -0.200997 0)
(9.89936 0.075816 0)
(9.68939 0.0711442 0)
(9.476 0.0658869 0)
(9.27002 0.0585225 0)
(9.06802 0.0494004 0)
(8.86947 0.0388358 0)
(8.67398 0.0271371 0)
(8.48126 0.014611 0)
(8.29109 0.00155973 0)
(8.10332 -0.011724 0)
(7.91789 -0.0249641 0)
(7.73478 -0.0379074 0)
(7.554 -0.0503307 0)
(7.3756 -0.0620448 0)
(7.19966 -0.072896 0)
(7.02624 -0.0827644 0)
(6.85541 -0.091558 0)
(6.68625 -0.0992065 0)
(9.89804 0.12389 0)
(9.68659 0.119421 0)
(9.47237 0.11481 0)
(9.26513 0.108548 0)
(9.06196 0.100881 0)
(8.86235 0.092048 0)
(8.66593 0.0822936 0)
(8.47241 0.071866 0)
(8.2816 0.0610094 0)
(8.09338 0.0499582 0)
(7.90766 0.0389315 0)
(7.72444 0.0281276 0)
(7.54373 0.0177191 0)
(7.36558 0.00784938 0)
(7.19003 -0.00136774 0)
(7.01715 -0.00984415 0)
(6.84702 -0.0175059 0)
(6.67852 -0.0242725 0)
(9.89693 0.150213 0)
(9.68433 0.14575 0)
(9.46966 0.141706 0)
(9.26155 0.136467 0)
(9.05757 0.130143 0)
(8.85722 0.122895 0)
(8.66013 0.114911 0)
(8.46605 0.106383 0)
(8.27478 0.0975044 0)
(8.08621 0.0884576 0)
(7.90027 0.0794127 0)
(7.71695 0.0705222 0)
(7.53625 0.0619165 0)
(7.35821 0.053701 0)
(7.18287 0.0459538 0)
(7.0103 0.0387273 0)
(6.84058 0.0320606 0)
(6.67245 0.0260224 0)
(9.89593 0.15496 0)
(9.68247 0.150228 0)
(9.46765 0.146735 0)
(9.259 0.142488 0)
(9.05447 0.13744 0)
(8.8536 0.131687 0)
(8.65605 0.125363 0)
(8.46157 0.118614 0)
(8.26998 0.111584 0)
(8.08116 0.10441 0)
(7.89505 0.0972194 0)
(7.71163 0.0901246 0)
(7.53091 0.0832208 0)
(7.3529 0.076582 0)
(7.17765 0.0702555 0)
(7.0052 0.0642556 0)
(6.83565 0.0585607 0)
(6.66763 0.0531536 0)
(9.89498 0.138017 0)
(9.68087 0.132649 0)
(9.46623 0.129778 0)
(9.25726 0.126526 0)
(9.05238 0.122723 0)
(8.85117 0.118416 0)
(8.65331 0.113696 0)
(8.45856 0.108663 0)
(8.26675 0.103418 0)
(8.07775 0.0980563 0)
(7.89151 0.0926665 0)
(7.70801 0.0873261 0)
(7.52725 0.0821001 0)
(7.34923 0.0770367 0)
(7.17399 0.0721607 0)
(7.00153 0.0674564 0)
(6.83193 0.062829 0)
(6.6637 0.0580441 0)
(9.89401 0.0989353 0)
(9.67947 0.0924716 0)
(9.46529 0.0903936 0)
(9.25616 0.088161 0)
(9.05107 0.0855981 0)
(8.84966 0.0827237 0)
(8.65161 0.0795907 0)
(8.4567 0.0762589 0)
(8.26474 0.0727878 0)
(8.07563 0.0692339 0)
(7.88931 0.0656492 0)
(7.70574 0.0620795 0)
(7.52494 0.0585631 0)
(7.3469 0.0551277 0)
(7.17162 0.0517843 0)
(6.99909 0.0485085 0)
(6.82925 0.045171 0)
(6.66027 0.0412537 0)
(9.89297 0.0368907 0)
(9.67818 0.0333216 0)
(9.46477 0.0325092 0)
(9.25557 0.0316516 0)
(9.05038 0.0306809 0)
(8.84887 0.0296021 0)
(8.65074 0.028433 0)
(8.45574 0.0271932 0)
(8.26371 0.0259027 0)
(8.07454 0.0245801 0)
(7.88816 0.0232426 0)
(7.70455 0.0219057 0)
(7.52372 0.0205819 0)
(7.34565 0.0192805 0)
(7.17034 0.0180049 0)
(6.99774 0.0167437 0)
(6.8276 0.0154331 0)
(6.65681 0.013746 0)
(0.0225695 -0.0482413 -6.23237e-28)
(0.0365765 -0.0497185 6.42165e-28)
(0.0341549 -0.0495735 0)
(0.0467045 -0.0493586 0)
(0.0596588 -0.049066 0)
(0.0729511 -0.0486951 -6.28508e-28)
(0.0865131 -0.0482462 0)
(0.100275 -0.0477201 0)
(0.114166 -0.0471183 0)
(0.128117 -0.046443 0)
(0.142056 -0.0456967 5.88939e-28)
(0.155915 -0.0448827 0)
(0.169626 -0.0440047 0)
(0.183125 -0.0430667 0)
(0.196348 -0.0420732 0)
(0.209235 -0.0410291 5.27819e-28)
(0.221732 -0.0399394 0)
(0.233784 -0.0388094 0)
(0.245344 -0.0376445 0)
(0.256368 -0.0364501 0)
(0.266818 -0.0352316 0)
(0.276657 -0.0339947 0)
(0.285857 -0.0327444 0)
(0.294392 -0.031486 4.03472e-28)
(0.302242 -0.0302245 -3.87075e-28)
(0.309392 -0.0289646 3.70706e-28)
(0.315831 -0.0277108 3.54425e-28)
(0.321552 -0.0264672 0)
(0.326552 -0.0252377 0)
(0.330834 -0.024026 -3.06623e-28)
(0.334402 -0.0228351 -2.9119e-28)
(0.337266 -0.0216682 0)
(0.339437 -0.0205276 0)
(0.340931 -0.0194157 -2.46918e-28)
(0.341764 -0.0183345 0)
(0.341958 -0.0172854 0)
(0.341534 -0.01627 2.06253e-28)
(0.340515 -0.0152892 0)
(0.338927 -0.014344 1.8139e-28)
(0.336798 -0.0134347 3.39328e-28)
(0.334153 -0.0125619 0)
(0.331022 -0.0117256 0)
(0.327434 -0.0109258 0)
(0.323417 -0.0101624 0)
(0.319003 -0.00943483 0)
(0.314218 -0.00874277 2.18577e-28)
(0.309095 -0.00808557 2.0171e-28)
(0.30366 -0.00746252 1.85732e-28)
(0.297943 -0.00687283 0)
(0.291972 -0.00631562 -1.56362e-28)
(0.285775 -0.00578999 0)
(0.279378 -0.00529493 1.30275e-28)
(0.272806 -0.00482945 1.18397e-28)
(0.266086 -0.00439249 0)
(0.259241 -0.00398298 0)
(0.252294 -0.00359985 0)
(0.245268 -0.003242 7.80132e-29)
(0.238184 -0.00290835 0)
(0.231061 -0.00259782 0)
(0.223919 -0.00230933 0)
(0.216776 -0.00204182 0)
(0.209649 -0.00179426 0)
(0.202554 -0.00156562 0)
(0.195505 -0.0013549 0)
(0.188516 -0.00116114 0)
(0.181601 -0.000983385 -2.11324e-29)
(0.174771 -0.000820726 0)
(0.168036 -0.000672275 0)
(0.161408 -0.000537176 1.0075e-29)
(0.154894 -0.000414606 7.06034e-30)
(0.148503 -0.000303771 0)
(0.142243 -0.00020391 -1.91273e-30)
(0.136119 -0.000114295 -2.59215e-31)
(0.130137 -3.42273e-05 0)
(0.124303 3.69594e-05 3.8901e-30)
(0.11862 9.99012e-05 0)
(0.113092 0.000155202 0)
(0.107722 0.000203439 -7.80199e-30)
(0.102512 0.000245156 0)
(0.0974628 0.000280873 9.56141e-30)
(0.0925767 0.000311078 0)
(0.0878539 0.000336234 -1.07656e-29)
(0.0832943 0.000356779 -1.11891e-29)
(0.0788977 0.000373124 -1.15077e-29)
(0.0746631 0.000385654 -2.34633e-29)
(0.0705893 0.000394734 2.37404e-29)
(0.0666749 0.000400704 0)
(0.0629179 0.000403881 0)
(0.0593161 0.000404565 0)
(0.0558669 0.000403031 2.34741e-29)
(0.0525677 0.000399538 2.31378e-29)
(0.0494155 0.000394325 -2.27194e-29)
(0.0464071 0.000387614 0)
(0.0435392 0.000379611 2.16812e-29)
(0.0408082 0.000370503 2.10815e-29)
(0.0382106 0.000360466 2.04399e-29)
(0.0357425 0.000349659 0)
(0.0334002 0.000338228 0)
(0.0311797 0.000326305 0)
(0.029077 0.000314012 1.7607e-29)
(0.0270881 0.000301459 0)
(0.025209 0.000288743 0)
(0.0234357 0.000275953 -1.5373e-29)
(0.021764 0.000263168 0)
(0.0201899 0.00025046 0)
(0.0187095 0.000237888 -1.3182e-29)
(0.0173188 0.000225508 0)
(0.0160138 0.000213367 0)
(0.0147907 0.000201504 1.11159e-29)
(0.0136457 0.000189955 1.04648e-29)
(0.0125751 0.000178748 0)
(0.0115752 0.000167906 -9.22707e-30)
(0.0106424 0.000157448 0)
(0.00977345 0.000147388 8.08127e-30)
(0.0089648 0.000137737 0)
(0.00821324 0.000128503 7.03125e-30)
(0.00751559 0.000119687 6.54255e-30)
(0.00686881 0.000111292 0)
(0.00626993 0.000103315 0)
(0.00571612 9.57532e-05 0)
(0.00520464 8.85996e-05 0)
(0.00473287 8.18467e-05 0)
(0.0042983 7.54854e-05 0)
(0.00389853 6.95051e-05 0)
(0.00353125 6.38944e-05 3.47001e-30)
(0.00319429 5.86409e-05 -3.18249e-30)
(0.00288556 5.37313e-05 0)
(0.0026031 4.91521e-05 0)
(0.00234502 4.48893e-05 0)
(0.00210956 4.09285e-05 0)
(0.00189504 3.72553e-05 -4.03107e-30)
(0.00169988 3.38553e-05 0)
(0.00152259 3.0714e-05 3.31954e-30)
(0.00136178 2.78172e-05 -3.00483e-30)
(0.00121613 2.51509e-05 0)
(0.00108441 2.27014e-05 0)
(0.000965475 2.04551e-05 0)
(0.000858248 1.83992e-05 1.98348e-30)
(0.000761728 1.6521e-05 1.78017e-30)
(0.000674986 1.48084e-05 0)
(0.000597155 1.32497e-05 1.42638e-30)
(0.000527434 1.18339e-05 1.2734e-30)
(0.000465082 1.05502e-05 -1.13479e-30)
(0.000409412 9.38862e-06 0)
(0.000359792 8.33951e-06 0)
(0.000315642 7.39385e-06 -7.94314e-31)
(0.000276426 6.54309e-06 0)
(0.000241654 5.77922e-06 0)
(0.000210877 5.09473e-06 0)
(0.000183686 4.4826e-06 0)
(0.000159706 3.93628e-06 4.22084e-31)
(0.000138598 3.4497e-06 3.69779e-31)
(0.000120053 3.0172e-06 0)
(0.00010379 2.63357e-06 2.82107e-31)
(8.95559e-05 2.29401e-06 0)
(7.71221e-05 1.99409e-06 0)
(6.62823e-05 1.72974e-06 1.8511e-31)
(5.6851e-05 1.49725e-06 0)
(4.8662e-05 1.29323e-06 1.38312e-31)
(4.15661e-05 1.11458e-06 0)
(3.54304e-05 9.58492e-07 0)
(3.01361e-05 8.22431e-07 8.78833e-32)
(2.55776e-05 7.04094e-07 0)
(2.16612e-05 6.01409e-07 6.42298e-32)
(1.83038e-05 5.12514e-07 0)
(1.5432e-05 4.35737e-07 0)
(1.29812e-05 3.69586e-07 0)
(1.08945e-05 3.12726e-07 -3.33639e-32)
(9.12178e-06 2.63971e-07 0)
(7.61944e-06 2.2227e-07 2.37018e-32)
(6.34926e-06 1.86691e-07 0)
(5.27796e-06 1.56412e-07 0)
(4.37659e-06 1.30709e-07 0)
(3.6201e-06 1.08947e-07 0)
(2.9868e-06 9.05702e-08 0)
(2.45797e-06 7.50921e-08 0)
(2.01753e-06 6.20902e-08 0)
(1.65167e-06 5.11974e-08 -1.08993e-32)
(1.34859e-06 4.2096e-08 0)
(1.09819e-06 3.4511e-08 0)
(0.0194841 -0.153193 1.97928e-27)
(0.0338392 -0.154525 -1.99599e-27)
(0.0350094 -0.154107 0)
(0.0478749 -0.153469 3.9648e-27)
(0.061143 -0.152592 0)
(0.0747442 -0.151476 -1.9569e-27)
(0.0886075 -0.150121 -3.87635e-27)
(0.102661 -0.148531 -3.83458e-27)
(0.116831 -0.14671 0)
(0.131046 -0.144664 -3.73329e-27)
(0.145233 -0.142402 1.83879e-27)
(0.159322 -0.139934 0)
(0.173245 -0.13727 0)
(0.186934 -0.134424 0)
(0.200326 -0.131409 0)
(0.213361 -0.128239 1.65493e-27)
(0.225982 -0.124931 0)
(0.238137 -0.1215 3.12945e-27)
(0.249778 -0.117963 0)
(0.260861 -0.114335 0)
(0.271348 -0.110635 -2.84703e-27)
(0.281204 -0.106878 0)
(0.290402 -0.10308 2.65083e-27)
(0.298917 -0.0992565 1.27933e-27)
(0.30673 -0.0954232 -1.22969e-27)
(0.313827 -0.091594 1.18012e-27)
(0.320198 -0.0877824 1.13078e-27)
(0.325838 -0.0840009 0)
(0.330746 -0.0802613 0)
(0.334925 -0.0765741 -9.85743e-28)
(0.338382 -0.0729492 -2.80856e-27)
(0.341127 -0.0693952 0)
(0.343173 -0.0659198 0)
(0.344536 -0.0625297 -8.0411e-28)
(0.345236 -0.0592308 0)
(0.345293 -0.056028 0)
(0.34473 -0.0529252 6.79972e-28)
(0.343572 -0.0499256 0)
(0.341845 -0.0470317 1.80343e-27)
(0.339577 -0.0442452 1.13569e-27)
(0.336795 -0.0415671 0)
(0.333529 -0.0389978 0)
(0.329808 -0.0365373 -1.85779e-27)
(0.325662 -0.034185 -1.73657e-27)
(0.321121 -0.0319398 -1.62092e-27)
(0.316214 -0.0298002 2.27362e-27)
(0.310971 -0.0277646 7.10355e-28)
(0.305422 -0.0258307 -6.46073e-28)
(0.299594 -0.0239963 1.21228e-27)
(0.293517 -0.0222588 -5.68446e-28)
(0.287218 -0.0206154 0)
(0.280723 -0.0190634 4.86149e-28)
(0.274059 -0.0175997 1.33247e-27)
(0.26725 -0.0162211 0)
(0.260321 -0.0149247 0)
(0.253295 -0.0137071 0)
(0.246193 -0.0125652 3.18992e-28)
(0.239037 -0.0114959 0)
(0.231847 -0.0104958 5.20726e-28)
(0.224642 -0.00956194 0)
(0.217439 -0.0086911 4.28784e-28)
(0.210256 -0.00788026 0)
(0.203108 -0.00712642 -3.49245e-28)
(0.19601 -0.00642665 0)
(0.188976 -0.00577811 2.80874e-28)
(0.182018 -0.00517802 -3.80059e-28)
(0.175148 -0.00462371 0)
(0.168376 -0.00411256 -1.96713e-28)
(0.161713 -0.00364208 9.03276e-29)
(0.155168 -0.00320985 7.93091e-29)
(0.148747 -0.00281353 0)
(0.14246 -0.00245091 -1.73247e-28)
(0.136311 -0.00211985 5.15786e-29)
(0.130306 -0.0018183 0)
(0.124451 -0.0015443 -3.6981e-29)
(0.118749 -0.00129599 -5.57868e-29)
(0.113203 -0.0010716 0)
(0.107816 -0.000869438 1.9929e-29)
(0.102591 -0.000687901 0)
(0.0975295 -0.000525468 6.67516e-30)
(0.0926314 -0.000380699 0)
(0.0878977 -0.000252235 -2.9451e-31)
(0.0833284 -0.000138788 1.62026e-30)
(0.0789231 -3.91478e-05 -6.28074e-30)
(0.0746807 4.78282e-05 -2.50495e-29)
(0.0706001 0.000123212 3.57779e-29)
(0.0666796 0.000188011 0)
(0.0629172 0.000243169 0)
(0.0593107 0.00028957 0)
(0.0558575 0.000328039 -2.48717e-29)
(0.0525549 0.000359346 2.10593e-29)
(0.0493997 0.000384207 -2.21956e-29)
(0.0463888 0.00040329 0)
(0.0435189 0.000417213 7.49826e-29)
(0.0407862 0.000426548 2.39779e-29)
(0.0381873 0.000431824 2.41279e-29)
(0.0357182 0.00043353 0)
(0.0333752 0.000432115 0)
(0.0311542 0.00042799 0)
(0.0290513 0.000421534 2.31645e-29)
(0.0270624 0.00041309 0)
(0.0251834 0.000402974 4.6423e-29)
(0.0234103 0.00039147 2.35547e-29)
(0.0217391 0.000378837 -4.32767e-29)
(0.0201655 0.000365306 0)
(0.0186857 0.000351088 -5.88639e-29)
(0.0172957 0.000336368 0)
(0.0159914 0.000321314 -3.62434e-29)
(0.0147691 0.000306074 5.09577e-29)
(0.0136249 0.000290776 4.8315e-29)
(0.0125552 0.000275535 0)
(0.0115562 0.000260449 1.51019e-29)
(0.0106243 0.000245604 -2.74014e-29)
(0.00975623 0.000231071 1.24067e-29)
(0.00894847 0.000216911 0)
(0.00819779 0.000203175 1.0891e-29)
(0.00750101 0.000189903 -1.08803e-29)
(0.00685508 0.000177127 0)
(0.00625703 0.000164873 -1.82292e-29)
(0.00570402 0.000153157 -1.69134e-29)
(0.00519332 0.000141992 -1.56625e-29)
(0.0047223 0.000131382 0)
(0.00428845 0.000121329 0)
(0.00388936 0.00011183 0)
(0.00352274 0.000102879 1.67878e-29)
(0.00318641 9.44644e-05 -5.03415e-30)
(0.00287828 8.65748e-05 0)
(0.00259637 7.91953e-05 8.67897e-30)
(0.00233883 7.23092e-05 7.91833e-30)
(0.00210386 6.58985e-05 0)
(0.00188981 5.99442e-05 -6.37655e-30)
(0.00169509 5.4426e-05 1.18953e-29)
(0.00151821 4.93235e-05 5.24331e-30)
(0.00135778 4.46158e-05 -1.44806e-29)
(0.00121249 4.02816e-05 0)
(0.0010811 3.63001e-05 0)
(0.000962473 3.26503e-05 0)
(0.000855528 2.93117e-05 3.11155e-30)
(0.00075927 2.62643e-05 8.50552e-30)
(0.000672767 2.34887e-05 5.11147e-30)
(0.000595156 2.09658e-05 2.22401e-30)
(0.000525638 1.86775e-05 6.04182e-30)
(0.00046347 1.66065e-05 -1.76084e-30)
(0.000407968 1.4736e-05 0)
(0.000358502 1.30502e-05 0)
(0.000314491 1.15341e-05 -3.7263e-30)
(0.000275401 1.01736e-05 0)
(0.000240743 8.95527e-06 0)
(0.00021007 7.86663e-06 1.70613e-30)
(0.000182971 6.89598e-06 0)
(0.000159075 6.03243e-06 1.94633e-30)
(0.000138042 5.26584e-06 5.57511e-31)
(0.000119564 4.58683e-06 0)
(0.000103361 3.98674e-06 1.28546e-30)
(8.918e-05 3.45758e-06 0)
(7.67935e-05 2.99204e-06 0)
(6.59957e-05 2.58339e-06 2.73349e-31)
(5.66016e-05 2.22551e-06 4.81605e-31)
(4.84454e-05 1.91283e-06 2.02357e-31)
(4.13786e-05 1.64027e-06 0)
(3.52683e-05 1.40326e-06 0)
(2.99963e-05 1.19765e-06 3.85665e-31)
(2.54573e-05 1.01971e-06 0)
(2.15579e-05 8.66103e-07 2.78838e-31)
(1.82153e-05 7.33824e-07 0)
(1.53564e-05 6.20199e-07 0)
(1.29168e-05 5.22844e-07 0)
(1.08397e-05 4.39644e-07 -4.64818e-32)
(9.0753e-06 3.68726e-07 0)
(7.58012e-06 3.08434e-07 3.26072e-32)
(6.31607e-06 2.57314e-07 0)
(5.25001e-06 2.14086e-07 0)
(4.35313e-06 1.77631e-07 3.83775e-32)
(3.60046e-06 1.46972e-07 -3.17531e-32)
(2.97039e-06 1.21259e-07 0)
(2.4443e-06 9.9754e-08 0)
(2.00617e-06 8.18185e-08 0)
(1.64226e-06 6.69012e-08 1.47654e-32)
(1.34081e-06 5.45288e-08 0)
(1.09168e-06 4.43022e-08 -1.91477e-32)
(0.0199165 -0.265292 1.37129e-26)
(0.0349498 -0.264926 -8.39398e-31)
(0.0366942 -0.264226 0)
(0.0502138 -0.263146 1.19968e-30)
(0.0641297 -0.261657 0)
(0.0783671 -0.259758 0)
(0.0928501 -0.257451 -1.32989e-26)
(0.107502 -0.254742 -6.57983e-27)
(0.122245 -0.251638 6.496e-27)
(0.137002 -0.248151 -6.40808e-27)
(0.151698 -0.244297 0)
(0.16626 -0.240091 0)
(0.180614 -0.235555 -6.07614e-27)
(0.194693 -0.23071 -1.18998e-26)
(0.208432 -0.225579 1.16326e-26)
(0.221768 -0.220188 0)
(0.234646 -0.214564 1.10594e-26)
(0.247011 -0.208734 5.38397e-27)
(0.258817 -0.202726 0)
(0.270021 -0.196569 1.01241e-26)
(0.280586 -0.190291 -4.90564e-27)
(0.290479 -0.183919 -9.4672e-27)
(0.299674 -0.177481 4.57362e-27)
(0.308149 -0.171004 0)
(0.315888 -0.164511 8.46026e-27)
(0.322879 -0.158028 8.12411e-27)
(0.329116 -0.151578 0)
(0.334595 -0.14518 7.45818e-27)
(0.339319 -0.138854 0)
(0.343293 -0.132618 6.80755e-27)
(0.346528 -0.126489 -3.25329e-27)
(0.349035 -0.12048 0)
(0.350832 -0.114604 0)
(0.351936 -0.108872 0)
(0.352368 -0.103294 0)
(0.352153 -0.097877 0)
(0.351314 -0.0926284 0)
(0.349878 -0.087553 4.4768e-27)
(0.347873 -0.0826545 -2.10371e-27)
(0.345328 -0.0779358 0)
(0.342273 -0.0733983 0)
(0.338737 -0.0690427 0)
(0.334752 -0.0648687 -6.62821e-27)
(0.330347 -0.060875 -3.11596e-27)
(0.325553 -0.05706 -1.53783e-29)
(0.320401 -0.0534211 1.51345e-29)
(0.31492 -0.0499552 -2.538e-27)
(0.309141 -0.0466589 -2.38301e-27)
(0.303093 -0.0435282 4.42914e-27)
(0.296803 -0.0405589 2.0548e-27)
(0.2903 -0.0377464 0)
(0.28361 -0.0350859 1.77372e-27)
(0.276759 -0.0325724 3.30255e-27)
(0.269773 -0.0302008 0)
(0.262675 -0.0279659 0)
(0.255488 -0.0258624 -1.30086e-27)
(0.248233 -0.0238851 0)
(0.240933 -0.0220287 0)
(0.233607 -0.020288 3.05833e-27)
(0.226273 -0.0186576 1.86504e-27)
(0.218949 -0.0171326 8.65058e-28)
(0.211652 -0.0157079 0)
(0.204396 -0.0143786 -7.24052e-28)
(0.197198 -0.0131398 0)
(0.190069 -0.0119869 1.78732e-27)
(0.183023 -0.0109153 -5.47022e-28)
(0.17607 -0.00992059 -9.75878e-28)
(0.169222 -0.00899853 -1.33171e-27)
(0.162487 -0.00814499 0)
(0.155875 -0.00735601 7.1643e-28)
(0.149392 -0.00662776 0)
(0.143047 -0.00595659 2.80929e-28)
(0.136844 -0.00533898 5.13266e-28)
(0.13079 -0.00477158 4.56314e-28)
(0.124889 -0.00425117 -4.04177e-28)
(0.119145 -0.0037747 1.72643e-28)
(0.11356 -0.00333924 0)
(0.108138 -0.00294202 0)
(0.10288 -0.0025804 -2.37659e-28)
(0.0977875 -0.00225188 -9.79494e-29)
(0.0928617 -0.00195409 0)
(0.0881027 -0.00168479 -7.87811e-29)
(0.0835103 -0.00144185 0)
(0.0790838 -0.00122327 -4.83044e-29)
(0.0748223 -0.00102717 1.77084e-28)
(0.0707243 -0.000851782 -1.42749e-28)
(0.066788 -0.000695423 5.29831e-29)
(0.0630114 -0.000556534 0)
(0.059392 -0.000433646 -2.80113e-29)
(0.0559273 -0.000325384 4.08796e-29)
(0.0526142 -0.000230465 0)
(0.0494498 -0.00014769 0)
(0.0464307 -7.59423e-05 0)
(0.0435534 -1.41834e-05 6.75957e-30)
(0.0408142 3.85523e-05 0)
(0.0382095 8.31593e-05 0)
(0.0357354 0.000120466 0)
(0.033388 0.000151237 0)
(0.0311632 0.000176179 0)
(0.0290569 0.000195942 -2.84919e-29)
(0.0270652 0.000211121 0)
(0.0251838 0.000222263 2.7738e-29)
(0.0234086 0.000229869 2.81892e-29)
(0.0217356 0.000234395 -2.83411e-29)
(0.0201607 0.000236255 0)
(0.0186797 0.000235827 -2.7912e-29)
(0.0172888 0.000233451 0)
(0.0159838 0.000229434 -2.67418e-29)
(0.014761 0.000224053 2.59544e-29)
(0.0136164 0.000217555 -2.76381e-29)
(0.0125465 0.000210162 0)
(0.0115473 0.00020207 -2.52554e-29)
(0.0106155 0.000193452 -6.80272e-29)
(0.00974747 0.000184462 0)
(0.00893986 0.000175232 -4.13026e-29)
(0.00818938 0.00016588 -3.89434e-29)
(0.00749286 0.000156506 1.90126e-29)
(0.00684721 0.000147195 0)
(0.00624949 0.00013802 -1.54513e-29)
(0.00569682 0.000129042 -1.44186e-29)
(0.00518648 0.000120312 1.4399e-29)
(0.00471582 0.000111868 0)
(0.00428234 0.000103745 0)
(0.00388362 9.59647e-05 0)
(0.00351737 8.85465e-05 3.01237e-29)
(0.00318139 8.15017e-05 0)
(0.00287361 7.48369e-05 0)
(0.00259204 6.85544e-05 7.57791e-30)
(0.00233482 6.26525e-05 6.91909e-30)
(0.00210017 5.71263e-05 0)
(0.00188641 5.19683e-05 0)
(0.00169197 4.71685e-05 1.03933e-29)
(0.00151536 4.27153e-05 0)
(0.00135518 3.85954e-05 -8.49325e-30)
(0.00121012 3.47947e-05 7.88102e-30)
(0.00107895 3.1298e-05 0)
(0.000960524 2.80896e-05 0)
(0.000853768 2.51536e-05 -5.68539e-30)
(0.000757683 2.24739e-05 1.00105e-29)
(0.00067134 2.00345e-05 8.92004e-30)
(0.000593877 1.78194e-05 0)
(0.000524493 1.58133e-05 -9.90559e-32)
(0.000462448 1.40009e-05 0)
(0.000407058 1.23677e-05 0)
(0.000357694 1.08997e-05 0)
(0.000313775 9.5835e-06 -2.10035e-30)
(0.000274768 8.40637e-06 0)
(0.000240185 7.35627e-06 -3.31466e-30)
(0.000209579 6.42186e-06 1.40718e-30)
(0.00018254 5.59251e-06 0)
(0.000158698 4.85829e-06 1.06462e-30)
(0.000137713 4.20994e-06 0)
(0.000119277 3.63892e-06 0)
(0.000103112 3.1373e-06 -7.26676e-31)
(8.89641e-05 2.69782e-06 1.21661e-30)
(7.6607e-05 2.31379e-06 0)
(6.58349e-05 1.97913e-06 8.93151e-31)
(5.64634e-05 1.68827e-06 3.70453e-31)
(4.83269e-05 1.43617e-06 0)
(4.12772e-05 1.21829e-06 0)
(3.51819e-05 1.0305e-06 0)
(2.99228e-05 8.69114e-07 -2.02334e-31)
(2.5395e-05 7.30821e-07 0)
(2.15052e-05 6.12667e-07 1.3482e-31)
(1.81709e-05 5.1202e-07 0)
(1.53192e-05 4.26548e-07 0)
(1.28856e-05 3.54189e-07 0)
(1.08136e-05 2.93125e-07 0)
(9.05358e-06 2.41758e-07 0)
(7.5621e-06 1.98691e-07 0)
(6.30117e-06 1.62703e-07 -7.4433e-32)
(5.23773e-06 1.32735e-07 0)
(4.34304e-06 1.07866e-07 2.39467e-32)
(3.59219e-06 8.7302e-08 2.07674e-32)
(2.96365e-06 7.03596e-08 0)
(2.43882e-06 5.6452e-08 0)
(2.00173e-06 4.50774e-08 -2.0912e-32)
(1.63868e-06 3.58081e-08 1.60479e-32)
(1.33793e-06 2.82809e-08 1.32129e-32)
(1.08936e-06 2.21951e-08 -1.00027e-32)
(0.020576 -0.377564 -9.75729e-27)
(0.0366587 -0.377042 -9.74189e-27)
(0.0393014 -0.376027 -1.94326e-26)
(0.0538349 -0.374459 -2.90245e-26)
(0.0687529 -0.372298 0)
(0.083973 -0.369543 1.90889e-26)
(0.0994113 -0.366197 -2.8372e-26)
(0.114983 -0.362271 0)
(0.130606 -0.357777 9.23904e-27)
(0.146194 -0.352734 0)
(0.161668 -0.347163 1.79172e-26)
(0.176949 -0.341091 0)
(0.19196 -0.334548 -8.63423e-27)
(0.20663 -0.327566 -1.69054e-26)
(0.22089 -0.320181 1.65216e-26)
(0.234678 -0.31243 0)
(0.247937 -0.304352 1.56995e-26)
(0.260612 -0.295989 0)
(0.272659 -0.28738 0)
(0.284036 -0.278568 1.43613e-26)
(0.294707 -0.269591 0)
(0.304645 -0.260492 -2.68334e-26)
(0.313824 -0.251308 0)
(0.322227 -0.242077 0)
(0.329843 -0.232836 2.39655e-26)
(0.336662 -0.223616 1.1513e-26)
(0.342683 -0.214451 -1.10221e-26)
(0.347909 -0.20537 1.05681e-26)
(0.352344 -0.1964 0)