/*--------------------------------*- C++ -*----------------------------------*\
| =========                 |                                                 |
| \\      /  F ield         | OpenFOAM: The Open Source CFD Toolbox           |
|  \\    /   O peration     | Version:  plus                                  |
|   \\  /    A nd           | Website:  www.openfoam.com                      |
|    \\/     M anipulation  |                                                 |
\*---------------------------------------------------------------------------*/
FoamFile
{
    version     2.0;
    format      ascii;
    class       volScalarField;
    location    "100";
    object      epsilon;
}
// * * * * * * * * * * * * * * * * * * * * * * * * * * * * * * * * * * * * * //

dimensions      [0 2 -3 0 0 0 0];


internalField   nonuniform List<scalar> 
12225
(
1643.7
2838.78
3793.54
4451.91
4862.49
5092.74
5200.76
5229.77
5209.71
5160.44
5094.83
5021.05
4944.23
4867.52
4792.82
4721.19
4652.48
4593.87
169.177
319.157
440.942
539.311
611.975
661.559
693.484
713.042
724.408
730.59
733.656
734.976
735.432
735.58
735.787
736.479
739.841
744.749
38.9332
67.8414
93.1239
114.924
132.997
147.285
158.17
166.23
172.052
176.166
179.016
180.957
182.263
183.143
183.755
184.242
184.784
185.014
20.1657
27.6327
35.0361
41.8901
48.0016
53.2754
57.7145
61.3822
64.3673
66.7658
68.6708
70.1677
71.3316
72.2265
72.9063
73.4161
73.7859
73.9741
16.1467
18.4421
21.0401
23.6438
26.1148
28.3789
30.4041
32.1852
33.732
35.0617
36.1953
37.1543
37.9602
38.6325
39.189
39.6449
40.0102
40.2797
15.0835
15.7458
16.6605
17.6885
18.7428
19.7694
20.7371
21.6296
22.4405
23.169
23.8177
24.3912
24.8949
25.3348
25.7166
26.0455
26.3253
26.5541
14.7909
14.8903
15.1341
15.4781
15.8814
16.3122
16.7473
17.1716
17.5756
17.9538
18.3033
18.6232
18.9136
19.1754
19.41
19.6185
19.8023
19.9592
14.713
14.6254
14.6056
14.6468
14.7365
14.8611
15.0082
15.1677
15.3321
15.4957
15.6548
15.8067
15.9498
16.083
16.2059
16.3182
16.4198
16.5086
14.6932
14.5488
14.4344
14.3516
14.2987
14.272
14.2666
14.278
14.3017
14.3341
14.3721
14.4133
14.456
14.4987
14.5402
14.5799
14.617
14.6499
14.6884
14.5283
14.3837
14.256
14.1454
14.0515
13.973
13.9083
13.8554
13.8127
13.7783
13.7508
13.7287
13.7109
13.6965
13.6846
13.6745
13.6653
14.6872
14.5231
14.3699
14.2278
14.0969
13.9771
13.8679
13.7689
13.6794
13.5986
13.5256
13.4596
13.3999
13.3457
13.2964
13.2513
13.2099
13.1718
14.6869
14.5218
14.3665
14.2206
14.0838
13.9558
13.8364
13.7251
13.6216
13.5253
13.4359
13.3529
13.2757
13.2039
13.1371
13.0749
13.0167
12.9628
14.6867
14.5213
14.3653
14.2183
14.0796
13.9489
13.8257
13.7096
13.6004
13.4976
13.4008
13.3098
13.2242
13.1436
13.0677
12.9962
12.9289
12.866
14.6866
14.521
14.3648
14.2174
14.0781
13.9465
13.822
13.7044
13.593
13.4877
13.3881
13.2937
13.2044
13.1198
13.0397
12.9637
12.8918
12.8243
14.6865
14.5208
14.3645
14.2169
14.0774
13.9455
13.8207
13.7025
13.5906
13.4845
13.384
13.2886
13.198
13.1121
13.0304
12.9529
12.8792
12.8099
14.6864
14.5207
14.3643
14.2165
14.0769
13.9449
13.8199
13.7016
13.5895
13.4832
13.3823
13.2866
13.1957
13.1093
13.0273
12.9492
12.875
12.8052
14.6863
14.5206
14.3641
14.2163
14.0766
13.9445
13.8194
13.701
13.5887
13.4823
13.3813
13.2855
13.1944
13.1079
13.0256
12.9474
12.873
12.803
14.6863
14.5205
14.364
14.2161
14.0764
13.9442
13.819
13.7005
13.5882
13.4817
13.3806
13.2846
13.1935
13.1069
13.0245
12.9462
12.8717
12.8016
14.6863
14.5205
14.364
14.2161
14.0763
13.9441
13.8189
13.7003
13.588
13.4814
13.3802
13.2842
13.193
13.1063
13.0239
12.9455
12.871
12.8008
14.6863
14.5205
14.364
14.2162
14.0764
13.9442
13.8191
13.7005
13.5882
13.4816
13.3805
13.2845
13.1933
13.1067
13.0243
12.946
12.8716
12.8015
14.6864
14.5206
14.3642
14.2164
14.0768
13.9447
13.8197
13.7013
13.5892
13.483
13.3823
13.2868
13.1962
13.1101
13.0285
12.9509
12.8772
12.808
14.6865
14.5209
14.3647
14.2173
14.0783
13.9472
13.8235
13.7069
13.597
13.4933
13.3957
13.3036
13.2167
13.1348
13.0575
12.9846
12.9158
12.8516
14.6868
14.522
14.3678
14.2239
14.0902
13.9665
13.8523
13.7473
13.6507
13.562
13.4807
13.406
13.3374
13.2743
13.2163
13.1627
13.1133
13.0683
14.6891
14.5322
14.3938
14.2747
14.1749
14.0932
14.0278
13.9766
13.9376
13.9088
13.8883
13.8745
13.866
13.8617
13.8606
13.8619
13.865
13.8698
14.7097
14.6115
14.5712
14.5833
14.6385
14.7268
14.8387
14.9659
15.1022
15.2424
15.383
15.5211
15.6548
15.7829
15.9046
16.0193
16.1268
16.2274
14.8667
15.1128
15.5319
16.0585
16.6437
17.2517
17.8578
18.446
19.0067
19.5341
20.0255
20.4799
20.8977
21.2799
21.6284
21.9449
22.2316
22.4906
15.8907
17.796
19.9879
22.2262
24.4062
26.4686
28.3828
30.1366
31.7281
33.1611
34.4428
35.5828
36.5918
37.481
38.2615
38.9439
39.5378
40.0536
22.4261
32.2533
41.4512
49.9351
57.741
64.8055
71.1008
76.64
81.4586
85.6056
89.1397
92.1249
94.626
96.7056
98.4213
99.8231
100.95
101.825
73.4449
128.653
175.856
218.794
257.79
292.071
321.375
345.869
365.948
382.122
394.945
404.963
412.676
418.521
422.869
426.016
428.159
429.327
819.185
1245.04
1627.87
1947.97
2235.54
2483.66
2690.2
2856.52
2986.17
3083.74
3154.12
3201.98
3231.55
3246.52
3250.01
3244.62
3232.49
3215.2
2.66987
2.44424
3.36965
4.28407
5.35788
6.6147
8.33865
10.3347
12.6579
15.2897
18.2006
21.369
24.7819
28.4337
32.3269
36.4737
40.9001
45.564
50.4479
55.5442
60.8472
66.3509
72.05
77.9392
84.0134
90.2678
96.6977
103.299
110.067
116.999
124.091
131.339
138.742
146.296
153.999
161.85
169.847
177.988
186.274
194.702
203.274
211.989
220.846
229.847
238.99
248.277
257.708
267.283
277.001
286.863
296.867
307.013
317.298
327.72
338.277
348.964
359.776
370.707
381.752
392.9
404.144
415.473
426.873
438.333
449.836
461.367
472.908
484.44
495.941
507.392
518.769
530.051
541.218
552.25
563.134
573.869
584.467
594.976
605.271
615.197
624.708
633.772
642.358
650.439
657.988
664.981
671.395
677.214
682.433
687.053
691.079
694.525
697.407
699.752
701.584
702.967
704.001
704.826
705.658
706.249
706.572
706.664
706.563
706.306
705.929
705.467
704.953
704.416
703.882
703.375
702.912
702.508
702.172
701.912
701.727
701.616
701.572
701.585
701.64
701.72
701.803
701.862
701.869
701.79
701.59
701.232
700.678
699.892
698.841
697.493
695.825
693.817
691.463
688.771
685.775
682.55
679.254
675.87
671.96
667.503
662.486
656.899
650.735
643.989
636.664
628.764
620.296
611.273
601.711
591.632
581.06
570.019
558.539
546.651
534.39
521.792
508.894
495.732
482.348
468.782
455.07
441.252
427.365
413.442
399.516
385.616
371.768
358.002
344.326
330.785
317.411
304.243
290.94
277.757
265.619
253.364
239.932
230.545
222.936
209.296
8.03093
4.45958
4.37756
4.9433
5.80532
6.91371
8.26382
9.82411
11.5619
13.445
15.448
17.5538
19.751
22.0326
24.3943
26.8331
29.3457
31.9257
34.5687
37.2722
40.0346
42.8546
45.7314
48.6642
51.6525
54.6957
57.7935
60.9456
64.1516
67.4114
70.7245
74.091
77.5105
80.9829
84.508
88.0856
91.7157
95.398
99.1325
102.919
106.757
110.648
114.589
118.582
122.626
126.721
130.866
135.061
139.304
143.596
147.936
152.321
156.752
161.225
165.74
170.295
174.886
179.512
184.169
188.855
193.564
198.294
203.04
207.798
212.561
217.325
222.084
226.832
231.562
236.269
240.947
245.591
250.195
254.758
259.278
263.759
268.212
272.637
276.964
281.158
285.205
289.092
292.808
296.341
299.682
302.822
305.755
308.476
310.98
313.267
315.337
317.192
318.839
320.286
321.544
322.635
323.585
324.417
325.149
325.773
326.312
326.815
327.289
327.685
328.004
328.252
328.436
328.563
328.639
328.667
328.652
328.594
328.496
328.355
328.172
327.943
327.665
327.334
326.945
326.492
325.968
325.366
324.679
323.898
323.015
322.023
320.916
319.688
318.336
316.859
315.258
313.536
311.7
309.759
307.724
305.613
303.451
301.238
299.05
296.748
294.286
291.661
288.87
285.915
282.797
279.518
276.079
272.486
268.741
264.852
260.823
256.662
252.376
247.972
243.459
238.847
234.144
229.361
224.506
219.59
214.623
209.614
204.573
199.507
194.424
189.331
184.233
179.137
174.045
168.962
163.897
158.844
153.753
148.602
143.57
138.479
133.193
128.606
124.655
121.821
15.1347
7.58222
6.76038
7.01033
7.70714
8.70607
9.95069
11.3979
13.0066
14.7402
16.5703
18.4767
20.4461
22.4697
24.5418
26.6585
28.817
31.0147
33.2505
35.5236
37.834
40.1819
42.5675
44.9913
47.4537
49.9552
52.496
55.0765
57.697
60.3576
63.0584
65.7995
68.581
71.4027
74.2645
77.1664
80.1083
83.0898
86.1109
89.1713
92.2709
95.4093
98.5863
101.802
105.055
108.346
111.674
115.04
118.442
121.88
125.353
128.861
132.403
135.978
139.585
143.224
146.892
150.589
154.312
158.061
161.833
165.626
169.437
173.264
177.105
180.955
184.813
188.673
192.533
196.388
200.235
204.071
207.891
211.693
215.475
219.234
222.969
226.671
230.311
233.871
237.339
240.704
243.957
247.089
250.092
252.958
255.683
258.26
260.687
262.96
265.079
267.043
268.856
270.521
272.045
273.435
274.702
275.856
276.905
277.855
278.721
279.527
280.26
280.909
281.474
281.959
282.367
282.703
282.971
283.171
283.308
283.382
283.392
283.341
283.225
283.045
282.798
282.482
282.094
281.632
281.093
280.472
279.768
278.978
278.098
277.128
276.066
274.911
273.666
272.332
270.911
269.41
267.832
266.184
264.474
262.71
260.9
259.055
257.166
255.181
253.083
250.87
248.542
246.098
243.54
240.867
238.082
235.184
232.178
229.065
225.848
222.532
219.12
215.616
212.025
208.352
204.604
200.785
196.901
192.959
188.965
184.924
180.842
176.724
172.574
168.398
164.196
159.973
155.728
151.458
147.167
142.824
138.419
133.94
129.511
125.149
120.852
116.965
113.554
111.277
22.5079
10.7778
9.13134
9.08326
9.62278
10.5111
11.6576
13.008
14.5193
16.1557
17.8885
19.696
21.5632
23.4797
25.4389
27.4364
29.4696
31.5369
33.6378
35.7721
37.9404
40.1433
42.3813
44.6554
46.9661
49.3141
51.7
54.1242
56.5871
59.0888
61.6296
64.2093
66.8281
69.4858
72.1823
74.9174
77.6907
80.5021
83.3514
86.2381
89.1622
92.1232
95.121
98.1553
101.226
104.333
107.475
110.653
113.867
117.116
120.401
123.72
127.074
130.463
133.886
137.343
140.833
144.357
147.913
151.5
155.118
158.766
162.442
166.144
169.873
173.624
177.396
181.187
184.994
188.813
192.643
196.479
200.317
204.155
207.989
211.815
215.628
219.417
223.165
226.858
230.485
234.035
237.499
240.867
244.13
247.281
250.312
253.218
255.992
258.631
261.131
263.491
265.71
267.789
269.73
271.538
273.216
274.77
276.207
277.53
278.752
279.883
280.917
281.848
282.679
283.413
284.052
284.601
285.063
285.441
285.737
285.952
286.088
286.146
286.126
286.028
285.851
285.594
285.256
284.837
284.333
283.745
283.072
282.311
281.463
280.528
279.506
278.399
277.207
275.933
274.581
273.153
271.653
270.085
268.454
266.765
265.022
263.223
261.338
259.35
257.25
255.038
252.711
250.27
247.715
245.046
242.264
239.369
236.362
233.245
230.02
226.691
223.261
219.733
216.112
212.401
208.606
204.733
200.786
196.771
192.694
188.561
184.376
180.145
175.87
171.559
167.206
162.821
158.397
153.926
149.405
144.817
140.241
135.689
131.2
126.828
122.622
118.761
115.282
112.608
31.3688
13.9864
11.3632
10.9773
11.3448
12.1157
13.1625
14.4185
15.8385
17.3874
19.0375
20.7676
22.5618
24.4092
26.3022
28.2362
30.2082
32.2168
34.2613
36.3418
38.4588
40.613
42.8052
45.0362
47.3067
49.6175
51.969
54.3617
56.796
59.2719
61.7897
64.3492
66.9503
69.5929
72.2767
75.0015
77.7669
80.5725
83.4182
86.3035
89.2282
92.1921
95.1949
98.2365
101.317
104.436
107.593
110.79
114.025
117.299
120.612
123.966
127.359
130.792
134.266
137.78
141.336
144.934
148.573
152.254
155.977
159.742
163.548
167.395
171.281
175.207
179.171
183.17
187.203
191.268
195.361
199.479
203.62
207.778
211.949
216.13
220.313
224.486
228.635
232.747
236.811
240.816
244.75
248.604
252.366
256.028
259.581
263.015
266.325
269.502
272.542
275.44
278.194
280.801
283.26
285.573
287.741
289.767
291.654
293.407
295.032
296.539
297.924
299.185
300.323
301.342
302.244
303.033
303.715
304.29
304.764
305.138
305.416
305.598
305.686
305.682
305.586
305.399
305.12
304.749
304.287
303.733
303.087
302.349
301.519
300.599
299.588
298.488
297.3
296.026
294.667
293.225
291.704
290.104
288.429
286.682
284.867
282.958
280.937
278.796
276.529
274.137
271.616
268.968
266.191
263.286
260.254
257.093
253.806
250.392
246.856
243.201
239.43
235.548
231.557
227.463
223.272
218.99
214.623
210.176
205.656
201.069
196.423
191.719
186.961
182.162
177.305
172.41
167.456
162.454
157.461
152.478
147.535
142.662
137.889
133.265
128.851
124.761
120.988
117.775
39.8455
16.9428
13.34
12.608
12.799
13.4519
14.4017
15.5682
16.9025
18.3698
19.9436
21.6035
23.3341
25.1243
26.9664
28.8553
30.7879
32.7624
34.7781
36.8351
38.9337
41.0746
43.2586
45.4864
47.7587
50.0763
52.4397
54.8492
57.3052
59.8078
62.357
64.9527
67.5948
70.283
73.0169
75.7964
78.6209
81.4902
84.4039
87.3616
90.3632
93.4084
96.4972
99.6293
102.805
106.024
109.287
112.595
115.947
119.344
122.787
126.277
129.814
133.4
137.035
140.721
144.458
148.248
152.091
155.989
159.943
163.952
168.018
172.142
176.322
180.56
184.854
189.203
193.606
198.061
202.565
207.117
211.71
216.343
221.01
225.706
230.421
235.141
239.853
244.546
249.206
253.821
258.379
262.867
267.274
271.587
275.796
279.889
283.858
287.691
291.382
294.924
298.31
301.536
304.599
307.496
310.228
312.794
315.197
317.44
319.525
321.459
323.248
324.887
326.377
327.722
328.923
329.986
330.916
331.715
332.39
332.942
333.377
333.698
333.906
334.005
333.996
333.882
333.663
333.34
332.914
332.387
331.757
331.026
330.195
329.263
328.232
327.101
325.872
324.546
323.122
321.601
319.984
318.273
316.467
314.566
312.578
310.457
308.197
305.794
303.245
300.548
297.703
294.707
291.561
288.267
284.824
281.232
277.491
273.605
269.575
265.406
261.103
256.672
252.117
247.442
242.653
237.76
232.773
227.693
222.528
217.286
211.981
206.606
201.165
195.685
190.122
184.547
178.962
173.389
167.846
162.359
156.948
151.643
146.474
141.485
136.73
132.29
128.122
124.371
47.5521
19.5379
15.0094
13.9424
13.9603
14.4981
15.3552
16.4378
17.6926
19.084
20.5864
22.1802
23.851
25.588
27.3837
29.2328
31.1321
33.0798
35.0751
37.1178
39.2083
41.3471
43.5351
45.773
48.0615
50.4014
52.793
55.2369
57.7334
60.2825
62.8843
65.5387
68.2455
71.0044
73.8152
76.6775
79.5909
82.5551
85.5697
88.6345
91.7493
94.9139
98.1284
101.393
104.707
108.072
111.488
114.956
118.476
122.049
125.676
129.36
133.1
136.899
140.758
144.678
148.663
152.713
156.83
161.017
165.274
169.605
174.009
178.489
183.045
187.678
192.388
197.175
202.038
206.976
211.987
217.068
222.215
227.424
232.691
238.008
243.361
248.737
254.122
259.504
264.868
270.201
275.488
280.715
285.868
290.933
295.896
300.744
305.463
310.043
314.471
318.738
322.835
326.755
330.492
334.042
337.402
340.57
343.546
346.332
348.93
351.34
353.579
355.64
357.523
359.23
360.765
362.132
363.337
364.385
365.281
366.03
366.637
367.107
367.444
367.651
367.733
367.691
367.529
367.247
366.849
366.334
365.705
364.961
364.103
363.132
362.047
360.849
359.537
358.11
356.568
354.91
353.135
351.243
349.235
347.104
344.854
342.436
339.851
337.096
334.168
331.066
327.788
324.334
320.705
316.901
312.923
308.772
304.45
299.957
295.298
290.478
285.503
280.383
275.121
269.723
264.196
258.547
252.797
246.945
240.992
234.952
228.854
222.663
216.404
210.144
203.855
197.577
191.322
185.116
178.976
172.929
166.995
161.202
155.579
150.164
145.003
140.154
135.55
131.289
54.1672
21.7145
16.3574
14.9804
14.8335
15.2605
16.0288
17.0321
18.2121
19.532
20.9664
22.4967
24.109
25.7933
27.5424
29.3512
31.2165
33.1366
35.1105
37.1382
39.22
41.3564
43.5483
45.7965
48.1018
50.4648
52.8863
55.3666
57.9062
60.5053
63.164
65.8822
68.6598
71.4967
74.3925
77.3471
80.3601
83.4313
86.5603
89.7471
92.9915
96.2936
99.6534
103.071
106.547
110.082
113.677
117.333
121.05
124.83
128.675
132.586
136.566
140.615
144.738
148.935
153.209
157.564
162.002
166.525
171.136
175.838
180.634
185.525
190.513
195.6
200.787
206.075
211.463
216.95
222.536
228.217
233.99
239.851
245.794
251.809
257.877
263.986
270.122
276.271
282.417
288.545
294.638
300.68
306.654
312.544
318.332
324.003
329.541
334.932
340.16
345.214
350.081
354.751
359.217
363.471
367.507
371.324
374.918
378.29
381.44
384.365
387.087
389.602
391.908
394.007
395.901
397.596
399.097
400.41
401.543
402.5
403.289
403.914
404.383
404.699
404.869
404.894
404.78
404.529
404.144
403.625
402.976
402.195
401.284
400.243
399.071
397.767
396.33
394.757
393.048
391.2
389.21
387.077
384.802
382.383
379.786
376.997
374.009
370.821
367.431
363.837
360.037
356.031
351.819
347.405
342.791
337.977
332.965
327.759
322.362
316.78
311.019
305.096
299.016
292.785
286.405
279.882
273.259
266.53
259.672
252.724
245.747
238.706
231.64
224.576
217.525
210.514
203.563
196.696
189.935
183.301
176.819
170.512
164.407
158.538
152.943
147.662
142.616
137.879
59.5106
23.4476
17.3891
15.738
15.4389
15.7606
16.4435
17.3705
18.4785
19.7294
21.0976
22.565
24.1185
25.7485
27.4484
29.2133
31.0403
32.9278
34.8749
36.8816
38.9483
41.0757
43.2647
45.5163
47.8313
50.2107
52.6553
55.1657
57.7423
60.3858
63.0962
65.8738
68.7186
71.6306
74.6097
77.6558
80.7688
83.9486
87.1951
90.5083
93.8882
97.335
100.849
104.431
108.081
111.8
115.59
119.451
123.384
127.393
131.477
135.64
139.885
144.213
148.628
153.132
157.729
162.423
167.216
172.113
177.117
182.231
187.459
192.805
198.27
203.858
209.571
215.409
221.373
227.464
233.68
240.018
246.476
253.049
259.729
266.496
273.337
280.237
287.182
294.155
301.139
308.116
315.069
321.977
328.822
335.585
342.245
348.785
355.185
361.428
367.496
373.374
379.046
384.501
389.726
394.714
399.457
403.949
408.186
412.167
415.894
419.362
422.579
425.562
428.306
430.81
433.076
435.11
436.917
438.504
439.878
441.046
442.017
442.798
443.394
443.814
444.062
444.144
444.065
443.828
443.437
442.893
442.199
441.356
440.363
439.22
437.925
436.478
434.875
433.114
431.191
429.104
426.847
424.419
421.816
419.038
416.039
412.812
409.354
405.663
401.737
397.574
393.173
388.533
383.656
378.545
373.205
367.639
361.848
355.838
349.611
343.173
336.526
329.705
322.715
315.559
308.234
300.731
293.154
285.476
277.691
269.844
261.963
254.054
246.149
238.271
230.442
222.689
215.033
207.5
200.109
192.884
185.847
179.02
172.429
166.101
160.068
154.355
148.879
143.705
63.5031
24.7345
18.1205
16.2391
15.8046
16.0278
16.6287
17.4812
18.5186
19.7013
21.0034
22.4071
23.9
25.4728
27.1194
28.8353
30.6179
32.4657
34.3782
36.3554
38.3979
40.5067
42.6827
44.9272
47.2414
49.6264
52.0833
54.6129
57.2162
59.8938
62.6463
65.4741
68.3777
71.3573
74.413
77.5452
80.7538
84.0392
87.4015
90.8409
94.3578
97.9525
101.626
105.378
109.211
113.125
117.121
121.201
125.368
129.622
133.966
138.403
142.936
147.568
152.303
157.143
162.093
167.158
172.341
177.647
183.08
188.645
194.346
200.188
206.174
212.307
218.591
225.026
231.616
238.359
245.255
252.302
259.497
266.834
274.294
281.86
289.518
297.253
305.048
312.885
320.744
328.607
336.451
344.255
351.999
359.658
367.212
374.639
381.918
389.028
395.949
402.662
409.148
415.393
421.384
427.11
432.56
437.73
442.612
447.204
451.505
455.514
459.227
462.673
465.85
468.755
471.389
473.756
475.863
477.717
479.326
480.697
481.841
482.765
483.477
483.984
484.296
484.416
484.352
484.108
483.687
483.093
482.327
481.391
480.285
479.006
477.554
475.926
474.118
472.127
469.947
467.574
465.003
462.229
459.243
456.049
452.59
448.867
444.878
440.62
436.091
431.292
426.221
420.876
415.257
409.373
403.23
396.832
390.183
383.288
376.153
368.78
361.155
353.358
345.384
337.235
328.917
320.453
311.89
303.236
294.504
285.729
276.938
268.153
259.402
250.712
242.109
233.619
225.265
217.072
209.062
201.255
193.673
186.337
179.269
172.495
166.035
159.908
154.03
148.459
66.137
25.5888
18.5743
16.512
15.9619
16.0955
16.6181
17.3978
18.3652
19.4794
20.7146
22.053
23.4826
24.9947
26.5834
28.2448
29.9765
31.7773
33.6468
35.5855
37.5941
39.6739
41.8262
44.0526
46.3545
48.7335
51.191
53.7284
56.347
59.0478
61.8319
64.7002
67.6535
70.6925
73.818
77.0303
80.3303
83.7183
87.1951
90.7612
94.4174
98.1644
102.003
105.935
109.96
114.082
118.3
122.617
127.036
131.558
136.186
140.924
145.774
150.74
155.827
161.038
166.378
171.852
177.465
183.222
189.129
195.19
201.41
207.796
214.351
221.08
227.985
235.071
242.338
249.787
257.417
265.226
273.209
281.353
289.632
298.034
306.545
315.146
323.82
332.546
341.302
350.064
358.812
367.519
376.162
384.717
393.159
401.463
409.607
417.568
425.324
432.85
440.127
447.137
453.866
460.301
466.432
472.25
477.748
482.923
487.771
492.294
496.489
500.362
503.941
507.219
510.195
512.872
515.256
517.354
519.174
520.727
522.02
523.064
523.868
524.44
524.789
524.922
524.846
524.566
524.086
523.411
522.542
521.48
520.226
518.776
517.13
515.282
513.23
510.967
508.487
505.784
502.852
499.685
496.266
492.599
488.628
484.353
479.775
474.891
469.7
464.201
458.395
452.28
445.85
439.12
432.108
424.811
417.236
409.39
401.282
392.918
384.31
375.501
366.503
357.329
347.996
338.53
328.967
319.33
309.642
299.936
290.241
280.587
271.003
261.516
252.155
242.947
233.915
225.084
216.475
208.108
200.004
192.182
184.662
177.462
170.601
164.09
157.844
151.921
67.4584
26.0355
18.7778
16.587
15.9436
15.9979
16.4475
17.1567
18.0548
19.1004
20.2677
21.5393
22.9034
24.3517
25.8787
27.4809
29.1562
30.9037
32.7234
34.616
36.5826
38.6249
40.7445
42.9435
45.2238
47.5875
50.0364
52.5726
55.1979
57.9139
60.7223
63.6246
66.6223
69.7166
72.9089
76.2003
79.5919
83.085
86.6806
90.3799
94.1842
98.0946
102.113
106.24
110.478
114.828
119.293
123.875
128.576
133.399
138.347
143.424
148.632
153.977
159.463
165.094
170.875
176.812
182.91
189.176
195.614
202.232
209.034
216.027
223.215
230.604
238.197
245.997
254.006
262.225
270.652
279.283
288.108
297.095
306.232
315.503
324.892
334.381
343.95
353.574
363.227
372.883
382.52
392.109
401.626
411.042
420.332
429.468
438.427
447.185
455.724
464.005
472.009
479.72
487.121
494.201
500.946
507.347
513.398
519.093
524.43
529.407
534.026
538.28
542.205
545.804
549.072
552.012
554.628
556.928
558.921
560.615
562.021
563.149
564.009
564.61
564.962
565.072
564.949
564.598
564.024
563.231
562.221
560.996
559.554
557.894
556.013
553.906
551.567
548.989
546.165
543.087
539.746
536.136
532.241
528.044
523.506
518.627
513.404
507.838
501.926
495.67
489.069
482.126
474.84
467.224
459.29
451.043
442.493
433.651
424.528
415.139
405.505
395.654
385.609
375.394
365.032
354.554
343.993
333.38
322.746
312.123
301.546
291.045
280.651
270.395
260.306
250.409
240.731
231.294
222.119
213.226
204.634
196.359
188.419
180.829
173.601
166.742
160.171
153.943
67.5561
26.1076
18.76
16.494
15.7817
15.7694
16.1527
16.7953
17.6264
18.6047
19.7047
20.9095
22.2075
23.591
25.0548
26.5957
28.2121
29.9033
31.6697
33.5124
35.4331
37.4337
39.5165
41.684
43.9387
46.2835
48.7207
51.2532
53.8835
56.614
59.4472
62.3853
65.4306
68.5852
71.8512
75.2306
78.7252
82.337
86.0679
89.9197
93.8942
97.9934
102.219
106.574
111.059
115.678
120.432
125.325
130.358
135.536
140.861
146.337
151.969
157.76
163.715
169.838
176.137
182.615
189.28
196.137
203.193
210.453
217.925
225.612
233.523
241.66
250.028
258.63
267.467
276.538
285.84
295.364
305.071
314.946
324.974
335.138
345.42
355.801
366.263
376.776
387.3
397.815
408.294
418.709
429.033
439.237
449.292
459.171
468.847
478.296
487.493
496.411
505.028
513.325
521.286
528.897
536.146
543.023
549.521
555.634
561.36
566.698
571.649
576.215
580.394
584.228
587.711
590.841
593.622
596.061
598.165
599.945
601.41
602.571
603.439
604.023
604.333
604.378
604.165
603.701
602.992
602.04
600.849
599.419
597.75
595.838
593.681
591.271
588.602
585.666
582.453
578.954
575.159
571.057
566.637
561.856
556.699
551.163
545.245
538.944
532.26
525.195
517.75
509.929
501.738
493.186
484.286
475.047
465.484
455.61
445.444
435.006
424.321
413.417
402.322
391.066
379.681
368.201
356.66
345.094
333.538
322.029
310.601
299.288
288.123
277.137
266.36
255.817
245.534
235.534
225.837
216.461
207.424
198.739
190.421
182.483
174.932
167.769
160.92
154.436
66.5535
25.8435
18.5506
16.2625
15.5075
15.4435
15.7701
16.353
17.1222
18.0375
19.0741
20.2155
21.4509
22.7728
24.1764
25.659
27.2193
28.8572
30.5734
32.3695
34.2477
36.2105
38.2609
40.4019
42.637
44.9696
47.4032
49.9412
52.5873
55.3447
58.217
61.2073
64.3191
67.5553
70.9192
74.4137
78.0418
81.8062
85.7098
89.7553
93.9456
98.2832
102.771
107.411
112.208
117.162
122.278
127.559
133.007
138.626
144.42
150.392
156.546
162.887
169.419
176.147
183.077
190.215
197.565
205.136
212.933
220.964
229.229
237.738
246.494
255.502
264.765
274.286
284.062
294.092
304.364
314.828
325.469
336.269
347.212
358.277
369.442
380.686
391.983
403.304
414.62
425.901
437.119
448.246
459.252
470.108
480.785
491.256
501.494
511.473
521.17
530.56
539.622
548.338
556.692
564.67
572.262
579.456
586.248
592.632
598.605
604.168
609.321
614.065
618.401
622.352
625.939
629.157
632.007
634.494
636.627
638.414
639.865
640.991
641.802
642.308
642.519
642.443
642.087
641.459
640.564
639.405
637.985
636.304
634.36
632.151
629.67
626.912
623.868
620.527
616.878
612.91
608.61
603.964
598.96
593.549
587.723
581.478
574.812
567.726
560.221
552.298
543.963
535.221
526.081
516.554
506.655
496.396
485.795
474.873
463.651
452.156
440.417
428.464
416.331
404.053
391.667
379.211
366.722
354.24
341.803
329.45
317.217
305.141
293.255
281.59
270.176
259.04
248.207
237.697
227.531
217.725
208.295
199.252
190.608
182.371
174.546
167.131
160.056
153.367
64.6129
25.2896
18.1817
15.9228
15.1527
15.0551
15.3387
15.873
16.5906
17.4527
18.4355
19.5237
20.7074
21.9785
23.3332
24.7692
26.2858
27.8833
29.5632
31.3277
33.1794
35.1218
37.1585
39.2936
41.5313
43.8761
46.3326
48.9052
51.5988
54.4179
57.3671
60.4511
63.6744
67.0414
70.5565
74.224
78.0481
82.0329
86.1823
90.5001
94.9903
99.6564
104.502
109.531
114.747
120.152
125.751
131.548
137.544
143.744
150.152
156.771
163.604
170.656
177.931
185.433
193.167
201.138
209.35
217.809
226.521
235.489
244.719
254.213
263.977
274.011
284.318
294.898
305.745
316.839
328.119
339.568
351.167
362.897
374.736
386.661
398.65
410.676
422.712
434.731
446.702
458.596
470.385
482.04
493.531
504.832
515.914
526.752
537.321
547.596
557.557
567.182
576.452
585.352
593.866
601.984
609.694
616.991
623.868
630.321
636.349
641.952
647.132
651.889
656.23
660.15
663.698
666.868
669.66
672.078
674.129
675.821
677.163
678.164
678.835
679.185
679.222
678.954
678.39
677.534
676.393
674.968
673.261
671.272
668.998
666.436
663.579
660.419
656.945
653.146
649.009
644.519
639.662
634.417
628.77
622.675
616.126
609.12
601.657
593.738
585.365
576.543
567.278
557.579
547.458
536.929
526.009
514.714
503.067
491.093
478.818
466.275
453.496
440.515
427.372
414.105
400.756
387.366
373.977
360.629
347.366
334.226
321.249
308.47
295.925
283.646
271.661
259.997
248.677
237.723
227.152
216.98
207.218
197.878
188.966
180.489
172.447
164.835
157.59
150.754
61.9792
24.5403
17.6941
15.5025
14.7438
14.6342
14.8938
15.3977
16.0815
16.9082
17.8554
18.9086
20.0585
21.299
22.6266
24.0396
25.5381
27.1231
28.797
30.5626
32.4238
34.3847
36.4503
38.6256
40.9163
43.3279
45.8666
48.5383
51.3491
54.3054
57.4133
60.6791
64.109
67.709
71.4853
75.4436
79.5899
83.9295
88.468
93.2106
98.1622
103.328
108.712
114.319
120.153
126.217
132.517
139.055
145.834
152.858
160.13
167.652
175.427
183.458
191.747
200.297
209.111
218.192
227.542
237.164
247.061
257.234
267.685
278.415
289.425
300.711
312.273
324.108
336.162
348.367
360.706
373.159
385.705
398.321
410.983
423.667
436.346
448.995
461.586
474.092
486.484
498.736
510.821
522.712
534.384
545.813
556.975
567.849
578.412
588.647
598.534
608.058
617.205
625.961
634.317
642.263
649.792
656.9
663.582
669.837
675.664
681.065
686.04
690.593
694.727
698.444
701.757
704.699
707.265
709.456
711.277
712.735
713.837
714.592
715.008
715.093
714.854
714.298
713.431
712.258
710.782
709.006
706.929
704.551
701.867
698.873
695.56
691.919
687.937
683.602
678.898
673.81
668.319
662.398
656.03
649.174
641.828
633.991
625.662
616.845
607.545
597.768
587.524
576.824
565.684
554.121
542.154
529.807
517.104
504.075
490.754
477.174
463.374
449.393
435.274
421.059
406.794
392.522
378.288
364.137
350.112
336.254
322.602
309.195
296.065
283.246
270.766
258.65
246.921
235.597
224.696
214.229
204.207
194.638
185.527
176.875
168.68
160.935
153.581
146.657
59.1273
23.6923
17.166
15.0779
14.3629
14.2729
14.5411
15.0485
15.7337
16.5622
17.5129
18.5728
19.7337
20.9908
22.3417
23.7859
25.3244
26.9597
28.695
30.5346
32.4836
34.5477
36.7332
39.047
41.4961
44.0881
46.8308
49.7322
52.8003
56.0433
59.4697
63.0875
66.9052
70.9308
75.1723
79.6376
84.3341
89.2689
94.4491
99.881
105.571
111.524
117.746
124.242
131.016
138.072
145.413
153.042
160.96
169.17
177.673
186.468
195.557
204.939
214.613
224.578
234.834
245.378
256.209
267.324
278.722
290.398
302.35
314.572
327.059
339.797
352.787
365.904
379.099
392.356
405.654
418.971
432.282
445.563
458.789
471.936
484.977
497.888
510.645
523.225
535.603
547.757
559.668
571.314
582.677
593.739
604.484
614.896
624.963
634.671
644.009
652.967
661.537
669.711
677.484
684.851
691.81
698.357
704.493
710.217
715.529
720.431
724.925
729.014
732.701
735.987
738.868
741.386
743.542
745.336
746.77
747.849
748.578
748.962
749.008
748.721
748.107
747.169
745.912
744.338
742.448
740.244
737.724
734.884
731.719
728.223
724.386
720.196
715.64
710.703
705.368
699.616
693.429
686.774
679.629
671.96
663.768
655.054
645.82
636.072
625.816
615.062
603.822
592.111
579.948
567.353
554.352
540.969
527.236
513.186
498.857
484.289
469.523
454.603
439.575
424.485
409.382
394.312
379.323
364.459
349.766
335.286
321.059
307.122
293.509
280.251
267.376
254.907
242.866
231.269
220.13
209.46
199.267
189.555
180.326
171.579
163.308
155.502
148.11
141.166
56.2856
22.7742
16.6206
14.6845
14.06
14.0378
14.3646
14.9279
15.67
16.5586
17.5749
18.7075
19.9501
21.2997
22.7555
24.3188
25.9924
27.7802
29.6875
31.7204
33.8858
36.1916
38.6461
41.2582
44.0374
46.9935
50.1365
53.4768
57.0248
60.791
64.7862
69.0208
73.5053
78.2498
83.2641
88.5578
94.1395
100.018
106.199
112.692
119.502
126.633
134.092
141.882
150.006
158.466
167.262
176.394
185.862
195.663
205.793
216.251
227.029
238.122
249.525
261.228
273.226
285.509
298.067
310.892
323.974
337.3
350.863
364.641
378.644
392.774
406.885
420.974
435.02
449.001
462.892
476.671
490.313
503.795
517.094
530.188
543.057
555.681
568.043
580.125
591.914
603.394
614.555
625.386
635.876
646.02
655.808
665.235
674.297
682.988