/*--------------------------------*- C++ -*----------------------------------*\
| =========                 |                                                 |
| \\      /  F ield         | OpenFOAM: The Open Source CFD Toolbox           |
|  \\    /   O peration     | Version:  plus                                  |
|   \\  /    A nd           | Website:  www.openfoam.com                      |
|    \\/     M anipulation  |                                                 |
\*---------------------------------------------------------------------------*/
FoamFile
{
    version     2.0;
    format      ascii;
    class       volScalarField;
    location    "100";
    object      k;
}
// * * * * * * * * * * * * * * * * * * * * * * * * * * * * * * * * * * * * * //

dimensions      [0 2 -2 0 0 0 0];


internalField   nonuniform List<scalar> 
12225
(
0.753318
1.08439
1.31561
1.46373
1.5524
1.60102
1.62358
1.62962
1.62545
1.61518
1.60146
1.58597
1.56975
1.55347
1.53754
1.52218
1.50737
1.49469
0.466898
0.49135
0.499062
0.501636
0.501191
0.4988
0.495434
0.491821
0.488434
0.485549
0.48331
0.481772
0.480936
0.480768
0.48123
0.482336
0.484663
0.487595
0.399906
0.409188
0.407552
0.401189
0.392664
0.383174
0.373412
0.363813
0.354649
0.346084
0.338208
0.331059
0.324641
0.318935
0.31391
0.309534
0.305774
0.302395
0.37962
0.381736
0.380985
0.378139
0.373868
0.368679
0.362944
0.356931
0.35083
0.344778
0.338871
0.333174
0.327732
0.32257
0.317703
0.313134
0.308853
0.30486
0.374797
0.374411
0.373204
0.371185
0.368509
0.365336
0.361812
0.358058
0.354171
0.350226
0.346284
0.342388
0.338573
0.334864
0.331278
0.327827
0.324519
0.32138
0.373412
0.371973
0.370404
0.36857
0.366465
0.364126
0.361604
0.35895
0.356211
0.353424
0.350623
0.347834
0.345078
0.342372
0.339728
0.337157
0.334667
0.332286
0.372994
0.371097
0.369278
0.367435
0.365528
0.363547
0.361499
0.359397
0.35726
0.355105
0.352949
0.350804
0.348684
0.346597
0.344553
0.342558
0.340619
0.338758
0.372867
0.370782
0.36882
0.366929
0.365076
0.36324
0.361411
0.359587
0.357769
0.355963
0.354175
0.352409
0.350671
0.348966
0.347299
0.345673
0.344091
0.342575
0.372827
0.370672
0.36864
0.366709
0.364859
0.363073
0.361338
0.359646
0.357993
0.356376
0.354795
0.35325
0.351741
0.35027
0.348839
0.347447
0.346097
0.344805
0.372813
0.370632
0.368571
0.366616
0.364757
0.362982
0.361282
0.359647
0.358072
0.356551
0.35508
0.353658
0.352281
0.350949
0.349659
0.348413
0.347209
0.346061
0.372807
0.370616
0.368542
0.366575
0.364708
0.362933
0.361242
0.359628
0.358085
0.356607
0.355189
0.353829
0.352522
0.351265
0.350056
0.348894
0.347776
0.346715
0.372804
0.370609
0.368529
0.366557
0.364685
0.362907
0.361216
0.359607
0.358073
0.35661
0.355213
0.353878
0.3526
0.351377
0.350206
0.349083
0.348008
0.34699
0.372801
0.370603
0.368521
0.366545
0.36467
0.362889
0.361197
0.359588
0.358056
0.356598
0.355208
0.353883
0.352618
0.351411
0.350257
0.349155
0.348102
0.347107
0.372799
0.370599
0.368514
0.366536
0.364658
0.362875
0.36118
0.359569
0.358037
0.356579
0.35519
0.353868
0.352607
0.351405
0.350258
0.349164
0.34812
0.347136
0.372797
0.370596
0.368509
0.366528
0.364648
0.362863
0.361166
0.359553
0.358019
0.356559
0.355169
0.353846
0.352585
0.351382
0.350236
0.349143
0.348101
0.347119
0.372795
0.370593
0.368505
0.366522
0.364641
0.362853
0.361154
0.359539
0.358003
0.356541
0.355149
0.353824
0.352561
0.351357
0.350209
0.349114
0.348071
0.347088
0.372794
0.370591
0.368502
0.366518
0.364635
0.362846
0.361145
0.359528
0.35799
0.356526
0.355132
0.353805
0.35254
0.351334
0.350184
0.349087
0.348042
0.347057
0.372794
0.37059
0.3685
0.366515
0.364631
0.362841
0.361139
0.359521
0.357981
0.356516
0.35512
0.353791
0.352524
0.351316
0.350165
0.349066
0.348019
0.347033
0.372794
0.37059
0.368499
0.366515
0.36463
0.362839
0.361136
0.359517
0.357977
0.35651
0.355114
0.353783
0.352515
0.351307
0.350154
0.349054
0.348006
0.347019
0.372794
0.370591
0.368501
0.366516
0.364632
0.362841
0.361139
0.35952
0.35798
0.356513
0.355117
0.353786
0.352518
0.351309
0.350156
0.349056
0.348007
0.34702
0.372795
0.370593
0.368503
0.36652
0.364636
0.362847
0.361146
0.359528
0.357988
0.356522
0.355127
0.353797
0.352529
0.35132
0.350167
0.349067
0.348018
0.34703
0.372797
0.370596
0.368508
0.366527
0.364647
0.36286
0.361162
0.359547
0.358011
0.356548
0.355153
0.353824
0.352555
0.351345
0.350188
0.349083
0.348029
0.347033
0.3728
0.370603
0.368523
0.366552
0.364683
0.362909
0.361222
0.359616
0.358085
0.356623
0.355225
0.353887
0.352604
0.351375
0.350195
0.349061
0.347974
0.346943
0.372811
0.37064
0.368599
0.366673
0.364848
0.36311
0.361448
0.359851
0.358312
0.356824
0.355384
0.353988
0.352634
0.351321
0.350047
0.348811
0.347614
0.346469
0.372879
0.370848
0.368976
0.367207
0.365497
0.363821
0.362161
0.36051
0.358866
0.357231
0.355608
0.354002
0.352416
0.350855
0.349322
0.347819
0.346352
0.344936
0.373296
0.371888
0.370555
0.36914
0.367579
0.365863
0.364004
0.362032
0.359975
0.35786
0.355714
0.353554
0.351399
0.349262
0.347153
0.345081
0.343054
0.341092
0.375592
0.376404
0.376344
0.375318
0.373494
0.371082
0.368264
0.365176
0.361916
0.35856
0.355162
0.351763
0.348395
0.345082
0.34184
0.338684
0.335624
0.332681
0.388377
0.395983
0.396861
0.394344
0.39017
0.38513
0.379633
0.373918
0.368134
0.362382
0.356734
0.35124
0.345939
0.340856
0.336007
0.3314
0.327036
0.322923
0.431727
0.445049
0.4479
0.447774
0.446649
0.444955
0.44288
0.440564
0.438111
0.435605
0.433114
0.430694
0.428386
0.426221
0.424217
0.422378
0.420687
0.41909
0.569272
0.752523
0.899798
1.01419
1.1117
1.1925
1.25773
1.30905
1.34837
1.37758
1.39846
1.41257
1.42125
1.42564
1.42666
1.42508
1.42153
1.41645
0.0143959
0.0225242
0.0279167
0.032769
0.0380316
0.0437437
0.0509944
0.0587822
0.0672302
0.0761911
0.0855156
0.0951087
0.104917
0.114914
0.125099
0.135491
0.146138
0.156966
0.167912
0.178955
0.190086
0.201294
0.212569
0.223905
0.235294
0.24673
0.258208
0.269722
0.281269
0.292844
0.304446
0.316071
0.327719
0.339386
0.351073
0.36278
0.374506
0.386252
0.398018
0.409807
0.421618
0.433453
0.445315
0.457204
0.469123
0.481072
0.493054
0.505069
0.517119
0.529203
0.541322
0.553475
0.565661
0.577878
0.590124
0.602394
0.614684
0.62699
0.639303
0.651618
0.663924
0.676212
0.688471
0.700689
0.712851
0.724944
0.736951
0.748855
0.760639
0.772285
0.783776
0.795094
0.806226
0.817162
0.827903
0.838466
0.848894
0.859189
0.869093
0.878575
0.887613
0.89618
0.904252
0.911805
0.918818
0.925271
0.93115
0.936442
0.941135
0.94522
0.948693
0.951552
0.953802
0.955457
0.956542
0.957102
0.957179
0.95682
0.956072
0.955028
0.953836
0.952709
0.951572
0.950251
0.948779
0.947191
0.945524
0.943808
0.942074
0.940349
0.938655
0.937013
0.935436
0.933936
0.93252
0.931191
0.929947
0.928783
0.927692
0.92666
0.925672
0.92471
0.92375
0.922767
0.921733
0.920615
0.91938
0.917996
0.916428
0.914645
0.912618
0.910322
0.907736
0.904846
0.90165
0.898163
0.894442
0.890551
0.886728
0.882534
0.877872
0.872725
0.867081
0.860932
0.85427
0.84709
0.839392
0.831176
0.822447
0.813215
0.80349
0.793284
0.782613
0.771493
0.759945
0.747991
0.735654
0.722959
0.709931
0.6966
0.682994
0.669138
0.655063
0.640798
0.626365
0.611791
0.597094
0.5823
0.567425
0.552476
0.537491
0.522515
0.507566
0.492246
0.476877
0.462497
0.447429
0.431016
0.418626
0.400841
0.0300231
0.0556742
0.074667
0.0895083
0.102512
0.115422
0.129157
0.144044
0.160007
0.176847
0.194386
0.212494
0.231079
0.250077
0.269437
0.289121
0.309091
0.329309
0.349747
0.370383
0.391201
0.412185
0.433324
0.454603
0.476012
0.49754
0.519177
0.540914
0.562743
0.584655
0.606645
0.628707
0.650834
0.673024
0.695271
0.717575
0.739932
0.762344
0.784808
0.807326
0.829901
0.852533
0.875225
0.897982
0.920806
0.943702
0.966674
0.989726
1.01286
1.03609
1.0594
1.08281
1.10632
1.12993
1.15363
1.17744
1.20133
1.22532
1.2494
1.27355
1.29777
1.32205
1.34637
1.37071
1.39506
1.41939
1.44368
1.4679
1.49202
1.51601
1.53982
1.56342
1.58678
1.60984
1.63257
1.65492
1.67685
1.69827
1.71912
1.73934
1.75886
1.77765
1.79563
1.81277
1.829
1.84429
1.8586
1.87188
1.88412
1.89529
1.90536
1.91434
1.92221
1.92899
1.93469
1.93934
1.94295
1.94558
1.94726
1.94808
1.94813
1.94754
1.94614
1.94404
1.94133
1.93807
1.93431
1.93011
1.92552
1.9206
1.91541
1.90997
1.90433
1.89852
1.89257
1.88651
1.88035
1.8741
1.86777
1.86137
1.8549
1.84835
1.84171
1.83498
1.82813
1.82116
1.81404
1.80675
1.79927
1.79157
1.78364
1.77546
1.76702
1.7583
1.74931
1.74005
1.73049
1.7207
1.71036
1.69947
1.68808
1.67619
1.6638
1.65088
1.63743
1.62343
1.6089
1.5938
1.57816
1.56197
1.54524
1.52798
1.51019
1.4919
1.47311
1.45384
1.43412
1.41398
1.39342
1.37248
1.35119
1.32958
1.30766
1.28547
1.26302
1.24035
1.21746
1.19437
1.1711
1.14763
1.124
1.10013
1.07616
1.05186
1.02697
1.00193
0.977542
0.952279
0.927099
0.904306
0.0457867
0.0907892
0.117157
0.137083
0.154999
0.172719
0.191151
0.210669
0.231299
0.252917
0.275363
0.298495
0.3222
0.346392
0.371004
0.395985
0.421289
0.446883
0.472739
0.498835
0.525153
0.551679
0.578398
0.605299
0.63237
0.6596
0.686978
0.714495
0.742142
0.769909
0.797788
0.825771
0.853851
0.882023
0.91028
0.938617
0.967031
0.99552
1.02408
1.05271
1.08141
1.11019
1.13903
1.16796
1.19696
1.22604
1.2552
1.28446
1.31381
1.34326
1.37281
1.40247
1.43224
1.46212
1.49212
1.52223
1.55245
1.58279
1.61323
1.64377
1.67441
1.70514
1.73593
1.76677
1.79765
1.82855
1.85942
1.89026
1.92102
1.95167
1.98217
2.01248
2.04255
2.07233
2.10178
2.13084
2.15945
2.18753
2.21499
2.24176
2.26777
2.29295
2.31722
2.34053
2.3628
2.38398
2.40401
2.42285
2.44046
2.45679
2.47183
2.48556
2.49796
2.50904
2.51881
2.52729
2.53449
2.54046
2.54525
2.54891
2.55152
2.55316
2.55378
2.55347
2.55228
2.55029
2.54756
2.54414
2.54011
2.53551
2.53039
2.52481
2.5188
2.51241
2.50567
2.4986
2.49122
2.48356
2.47561
2.46739
2.4589
2.45014
2.44109
2.43177
2.42215
2.41221
2.40196
2.39136
2.38041
2.36909
2.35739
2.34529
2.33279
2.31989
2.30659
2.29287
2.27872
2.26419
2.24886
2.23286
2.21621
2.19891
2.18095
2.16233
2.14303
2.12306
2.1024
2.08106
2.05903
2.03633
2.01296
1.98894
1.96428
1.93899
1.9131
1.88664
1.85962
1.83208
1.80404
1.77554
1.74661
1.71728
1.68757
1.65753
1.62718
1.59654
1.56562
1.53444
1.50301
1.4713
1.43934
1.40696
1.37425
1.34115
1.30797
1.27519
1.24334
1.21238
1.18232
1.15591
0.0596295
0.121155
0.154299
0.179113
0.201071
0.222359
0.244046
0.266626
0.290251
0.314889
0.340434
0.366757
0.393745
0.4213
0.449346
0.477823
0.506682
0.535887
0.565409
0.595225
0.625315
0.655664
0.686258
0.717084
0.74813
0.779384
0.810835
0.842472
0.874285
0.906261
0.938392
0.970668
1.00308
1.03561
1.06827
1.10103
1.1339
1.16687
1.19994
1.23309
1.26634
1.29967
1.33309
1.3666
1.4002
1.4339
1.46769
1.50159
1.53559
1.5697
1.60393
1.63828
1.67276
1.70737
1.74211
1.777
1.81203
1.84719
1.88251
1.91796
1.95354
1.98925
2.02508
2.06101
2.09704
2.13313
2.16926
2.20542
2.24157
2.27766
2.31368
2.34956
2.38527
2.42075
2.45595
2.49082
2.52529
2.55925
2.59261
2.62529
2.6572
2.68827
2.7184
2.74752
2.77556
2.80243
2.82807
2.85241
2.87541
2.89701
2.91717
2.93586
2.95306
2.96876
2.98295
2.99564
3.00685
3.01662
3.02497
3.03196
3.03764
3.04209
3.04532
3.04738
3.04833
3.04822
3.04713
3.04511
3.04223
3.03853
3.03409
3.02895
3.02316
3.01675
3.00977
3.00224
2.99419
2.98565
2.97661
2.9671
2.95712
2.94667
2.93574
2.92434
2.91246
2.90008
2.8872
2.87381
2.85989
2.84544
2.83044
2.81488
2.79877
2.78209
2.76486
2.74707
2.72871
2.70967
2.68973
2.66896
2.6474
2.62502
2.60184
2.57785
2.55303
2.5274
2.50096
2.47369
2.44561
2.41673
2.38706
2.35662
2.32544
2.29354
2.26094
2.22767
2.19377
2.15927
2.12422
2.08864
2.05257
2.01606
1.97914
1.94184
1.9042
1.86625
1.82797
1.78941
1.75055
1.71134
1.67178
1.63177
1.59193
1.55232
1.51304
1.47457
1.43736
1.40179
1.36767
1.33702
0.0743985
0.146675
0.186048
0.215263
0.240726
0.264953
0.289183
0.314035
0.339782
0.366491
0.394125
0.422597
0.45181
0.481674
0.512113
0.543062
0.574472
0.606302
0.638522
0.671107
0.704037
0.737293
0.770861
0.804727
0.838876
0.873297
0.907976
0.9429
0.978057
1.01343
1.04902
1.08479
1.12075
1.15688
1.19317
1.22961
1.26619
1.3029
1.33974
1.3767
1.41377
1.45096
1.48825
1.52566
1.56318
1.60081
1.63856
1.67643
1.71443
1.75256
1.79083
1.82925
1.86782
1.90655
1.94546
1.98454
2.0238
2.06325
2.1029
2.14274
2.18277
2.22299
2.2634
2.30399
2.34475
2.38566
2.42671
2.46786
2.50911
2.5504
2.5917
2.63298
2.67419
2.71527
2.75617
2.79682
2.83717
2.87706
2.91641
2.95512
2.99312
3.03029
3.06654
3.10178
3.13592
3.16886
3.20052
3.23082
3.25969
3.28706
3.31287
3.33707
3.35963
3.38051
3.39969
3.41718
3.43297
3.44709
3.45955
3.4704
3.47967
3.48745
3.49378
3.49868
3.5022
3.5044
3.50535
3.5051
3.50372
3.50127
3.49782
3.4934
3.48809
3.48192
3.47493
3.46717
3.45866
3.44943
3.43949
3.42886
3.41755
3.40557
3.39291
3.37958
3.36557
3.35088
3.33549
3.31941
3.30262
3.2851
3.26686
3.24788
3.22816
3.20769
3.18648
3.16452
3.14186
3.11817
3.09346
3.06776
3.04109
3.01344
2.98482
2.95522
2.92466
2.89313
2.86064
2.82719
2.79281
2.75749
2.72127
2.68417
2.64623
2.60748
2.56794
2.52766
2.48668
2.44505
2.40281
2.36001
2.31669
2.2729
2.22869
2.18408
2.13909
2.09383
2.04817
2.00227
1.95598
1.9094
1.86295
1.81665
1.77073
1.72541
1.68085
1.63743
1.5956
1.55583
1.51775
1.48268
0.0872836
0.16772
0.212305
0.245269
0.273733
0.300452
0.326786
0.353454
0.380822
0.409047
0.438161
0.46813
0.49889
0.53037
0.562503
0.595228
0.628498
0.662274
0.696521
0.731216
0.766335
0.80186
0.837775
0.874063
0.910711
0.947703
0.985024
1.02266
1.06059
1.09881
1.1373
1.17604
1.21502
1.25422
1.29364
1.33325
1.37305
1.41302
1.45315
1.49345
1.53389
1.57448
1.61521
1.65608
1.6971
1.73825
1.77956
1.82101
1.86262
1.90439
1.94634
1.98847
2.0308
2.07333
2.11607
2.15904
2.20225
2.24571
2.28942
2.3334
2.37764
2.42217
2.46697
2.51204
2.55738
2.60299
2.64884
2.69492
2.74121
2.78767
2.83428
2.881
2.92778
2.97457
3.02131
3.06794
3.11435
3.1604
3.206
3.25106
3.29546
3.3391
3.38188
3.42366
3.46436
3.50386
3.54205
3.57884
3.61413
3.64783
3.67987
3.71017
3.73867
3.76533
3.79011
3.81299
3.83394
3.85298
3.87011
3.88536
3.89876
3.91034
3.92022
3.9284
3.93492
3.93983
3.94319
3.94506
3.9455
3.94459
3.94238
3.93894
3.93432
3.92858
3.92177
3.91392
3.90508
3.89527
3.88453
3.87287
3.8603
3.84684
3.8325
3.81726
3.80114
3.78413
3.76622
3.74741
3.72768
3.70702
3.68543
3.6629
3.63941
3.61497
3.58957
3.56319
3.53589
3.5073
3.47751
3.44654
3.4144
3.38111
3.34667
3.31107
3.27434
3.2365
3.19754
3.1575
3.11637
3.07419
3.03099
2.9868
2.94167
2.89565
2.84878
2.8011
2.75265
2.70351
2.65376
2.60341
2.5525
2.50112
2.44936
2.39715
2.34456
2.29178
2.23846
2.18515
2.13189
2.07882
2.0261
1.97391
1.92242
1.87186
1.82242
1.77445
1.72835
1.68455
1.64256
1.6032
0.0982374
0.184471
0.233204
0.269216
0.300155
0.328944
0.35702
0.385166
0.413814
0.443188
0.47338
0.504408
0.536245
0.568847
0.602162
0.636144
0.670749
0.70594
0.741687
0.777965
0.814751
0.852026
0.889773
0.927976
0.966618
1.00568
1.04515
1.08502
1.12525
1.16584
1.20677
1.24802
1.28957
1.33141
1.37351
1.41587
1.45847
1.5013
1.54434
1.58758
1.63102
1.67465
1.71846
1.76245
1.80662
1.85097
1.89551
1.94024
1.98516
2.03029
2.07564
2.12122
2.16704
2.21312
2.25947
2.3061
2.35304
2.4003
2.4479
2.49584
2.54415
2.59283
2.64189
2.69134
2.74117
2.7914
2.842
2.89298
2.94431
2.99596
3.04793
3.10015
3.1526
3.20522
3.25796
3.31075
3.36342
3.41586
3.46798
3.51967
3.5708
3.62127
3.67093
3.71967
3.76735
3.81385
3.85905
3.90281
3.94503
3.98559
4.02439
4.06133
4.09634
4.12933
4.16025
4.18906
4.21571
4.2402
4.26252
4.28268
4.30068
4.31654
4.33042
4.3423
4.35221
4.3602
4.36632
4.37064
4.37321
4.37411
4.37341
4.37117
4.36745
4.36233
4.35584
4.34805
4.339
4.32872
4.31725
4.30461
4.29083
4.27592
4.25989
4.24274
4.22447
4.20509
4.18459
4.16296
4.14018
4.11625
4.09115
4.06488
4.03741
4.00876
3.97891
3.94784
3.91555
3.88174
3.84651
3.8099
3.77193
3.73259
3.69191
3.6499
3.60657
3.56196
3.5161
3.469
3.42069
3.3712
3.32056
3.26883
3.21606
3.16234
3.10771
3.05221
2.9959
2.93883
2.88117
2.82291
2.76405
2.70471
2.64509
2.58494
2.52443
2.46407
2.40367
2.3435
2.28368
2.22438
2.16576
2.108
2.05126
1.99577
1.94174
1.88948
1.83934
1.79167
1.74588
1.7025
0.107194
0.197219
0.249094
0.287458
0.320337
0.350767
0.38023
0.409545
0.439184
0.469416
0.500381
0.532137
0.564695
0.598038
0.632135
0.666953
0.70246
0.738624
0.775421
0.812826
0.85082
0.889385
0.928502
0.968157
1.00833
1.04901
1.09017
1.13181
1.17389
1.21641
1.25934
1.30266
1.34635
1.3904
1.43479
1.47949
1.5245
1.56979
1.61535
1.66118
1.70725
1.75357
1.80012
1.8469
1.89391
1.94115
1.98863
2.03635
2.08431
2.13253
2.18103
2.22981
2.27889
2.32828
2.37802
2.42812
2.4786
2.52948
2.58078
2.63252
2.68474
2.73743
2.79062
2.84433
2.89856
2.95332
3.00861
3.06443
3.12077
3.17761
3.23492
3.29269
3.35086
3.4094
3.46824
3.52728
3.58635
3.64535
3.70417
3.7627
3.8208
3.87835
3.93519
3.99119
4.0462
4.10006
4.15264
4.20378
4.25334
4.30119
4.34719
4.39123
4.4332
4.47299
4.51052
4.54573
4.57856
4.60896
4.63692
4.66243
4.68549
4.70605
4.72432
4.74028
4.75395
4.76537
4.77458
4.78165
4.78664
4.78962
4.79067
4.78985
4.78725
4.78291
4.77692
4.76932
4.76017
4.74951
4.73739
4.72384
4.70888
4.69254
4.67482
4.65574
4.6353
4.6135
4.59033
4.56578
4.53985
4.51251
4.48375
4.45356
4.42193
4.38884
4.3543
4.31833
4.28068
4.24134
4.20036
4.15777
4.1136
4.06786
4.02058
3.97176
3.92143
3.86966
3.81647
3.7619
3.706
3.64879
3.59032
3.53063
3.4698
3.40797
3.34519
3.28151
3.21694
3.15152
3.0856
3.01912
2.95192
2.88426
2.81661
2.74873
2.68088
2.61329
2.546
2.47924
2.41315
2.3479
2.28366
2.2206
2.1589
2.09875
2.04037
1.98405
1.93007
1.87871
1.82929
1.7822
0.114187
0.20629
0.260403
0.300479
0.334783
0.366428
0.396922
0.427097
0.457449
0.488274
0.519743
0.551948
0.584927
0.618691
0.653229
0.688524
0.724556
0.761302
0.798744
0.836863
0.875641
0.915064
0.955116
0.995781
1.03705
1.07889
1.1213
1.16426
1.20775
1.25175
1.29624
1.3412
1.3866
1.43244
1.47869
1.52533
1.57234
1.6197
1.66741
1.71544
1.76379
1.81244
1.86139
1.91064
1.96017
2.00999
2.06011
2.11053
2.16126
2.21231
2.26369
2.31543
2.36753
2.42003
2.47294
2.52629
2.5801
2.6344
2.68923
2.7446
2.80055
2.8571
2.91428
2.9721
3.0306
3.08977
3.14964
3.21021
3.27147
3.33342
3.39604
3.45932
3.5232
3.58765
3.65261
3.71789
3.78339
3.849
3.91461
3.98009
4.04529
4.11007
4.17427
4.23772
4.30027
4.36173
4.42195
4.48074
4.53794
4.59339
4.64693
4.69841
4.74769
4.79464
4.83915
4.88113
4.92051
4.95721
4.99119
5.02242
5.05091
5.0766
5.09954
5.1199
5.13765
5.1528
5.1654
5.1755
5.18317
5.18848
5.19151
5.19234
5.19103
5.18767
5.18233
5.17506
5.16594
5.15501
5.14232
5.12792
5.11183
5.09409
5.07471
5.05369
5.03106
5.0068
4.98092
4.95339
4.92421
4.89336
4.86083
4.82658
4.79062
4.75291
4.71347
4.67231
4.62913
4.58401
4.53701
4.48817
4.43752
4.38508
4.33088
4.27493
4.21728
4.15799
4.09714
4.03476
3.97091
3.90564
3.839
3.77101
3.70173
3.63143
3.56017
3.48799
3.41484
3.34066
3.26623
3.19136
3.11601
3.04051
2.96505
2.88969
2.81463
2.74007
2.66615
2.59306
2.52097
2.45004
2.38045
2.31237
2.24596
2.18142
2.11895
2.0588
2.0012
1.94635
1.89355
1.8431
0.119302
0.212031
0.267592
0.30881
0.34407
0.376528
0.407702
0.438432
0.469219
0.500376
0.532093
0.564486
0.597615
0.631511
0.666184
0.701631
0.737845
0.774814
0.812526
0.85097
0.890132
0.930003
0.970569
1.01182
1.05374
1.09631
1.13953
1.18337
1.22782
1.27286
1.31846
1.36462
1.41131
1.4585
1.50619
1.55434
1.60295
1.65199
1.70145
1.75131
1.80157
1.8522
1.90321
1.95458
2.00631
2.05841
2.11088
2.16372
2.21693
2.27055
2.32457
2.37901
2.43391
2.48927
2.54514
2.60152
2.65847
2.716
2.77416
2.83297
2.89248
2.95271
3.01369
3.07547
3.13806
3.2015
3.26579
3.33096
3.39701
3.46395
3.53175
3.60042
3.66991
3.74019
3.81111
3.88255
3.95442
4.02659
4.09896
4.17137
4.24368
4.31572
4.38731
4.45829
4.52845
4.59762
4.66559
4.73218
4.79718
4.86041
4.92168
4.98081
5.03763
5.09197
5.14372
5.19273
5.23892
5.28219
5.32248
5.35973
5.39391
5.42501
5.45296
5.47797
5.50005
5.51919
5.53542
5.5488
5.55938
5.56725
5.57247
5.57513
5.57531
5.57309
5.56855
5.56175
5.55278
5.54169
5.52853
5.51336
5.49622
5.47712
5.45611
5.43319
5.40837
5.38165
5.35302
5.32248
5.29001
5.25559
5.21919
5.1808
5.14039
5.09796
5.05345
5.00691
4.95804
4.90697
4.85375
4.79845
4.74109
4.68172
4.62036
4.55705
4.49181
4.42472
4.35592
4.28546
4.21339
4.13978
4.06469
3.98814
3.91004
3.83101
3.75104
3.67016
3.58842
3.50596
3.42315
3.34006
3.25676
3.17351
3.0905
3.00788
2.92586
2.84462
2.76434
2.68521
2.60741
2.5311
2.45645
2.38363
2.3128
2.24414
2.17784
2.1141
2.05313
1.99504
1.93914
1.88567
0.122649
0.214802
0.271134
0.313005
0.348806
0.381712
0.413238
0.444224
0.475172
0.506403
0.538117
0.570445
0.603465
0.637224
0.671745
0.707043
0.743119
0.779974
0.817605
0.856005
0.895171
0.935095
0.975771
1.01719
1.05934
1.10222
1.14581
1.19009
1.23506
1.2807
1.32698
1.3739
1.42144
1.46956
1.51827
1.56753
1.61733
1.66765
1.71847
1.76979
1.82159
1.87385
1.92658
1.97975
2.03338
2.08745
2.14198
2.19696
2.2524
2.30833
2.36475
2.42167
2.47914
2.53716
2.59577
2.65499
2.71487
2.77544
2.83674
2.89881
2.96168
3.02541
3.09002
3.15556
3.22207
3.28958
3.35811
3.4277
3.49835
3.57008
3.64288
3.71675
3.79166
3.86753
3.94421
4.02162
4.09967
4.17825
4.25721
4.33642
4.4157
4.49488
4.57377
4.65218
4.7299
4.80671
4.88241
4.95677
5.02958
5.10063
5.1697
5.23655
5.30099
5.36283
5.42192
5.4781
5.53125
5.58125
5.62802
5.67147
5.71155
5.74824
5.78149
5.81131
5.8379
5.86121
5.88128
5.89812
5.91181
5.92241
5.93001
5.93468
5.93651
5.93558
5.93199
5.92581
5.91711
5.90597
5.89245
5.87659
5.85846
5.83808
5.81549
5.7907
5.76372
5.73456
5.7032
5.66964
5.63386
5.59583
5.55554
5.51295
5.46803
5.42079
5.37112
5.31908
5.26441
5.20725
5.14768
5.08576
5.02154
4.95506
4.88638
4.81552
4.74246
4.66736
4.59042
4.51167
4.43119
4.34905
4.26535
4.18016
4.09357
4.00591
3.91731
3.82786
3.73769
3.64698
3.556
3.46491
3.37388
3.28313
3.19287
3.10329
3.0146
2.927
2.84069
2.75585
2.67265
2.59128
2.51189
2.43465
2.3597
2.28721
2.21736
2.15031
2.08623
2.02519
1.9665
1.91036
0.124355
0.214969
0.271504
0.313616
0.349605
0.382636
0.414217
0.44518
0.476029
0.507083
0.538551
0.570571
0.603234
0.636597
0.670699
0.705563
0.741203
0.777629
0.814847
0.85286
0.89167
0.931276
0.971678
1.01287
1.05486
1.09762
1.14117
1.18548
1.23055
1.27636
1.32291
1.37017
1.41813
1.46678
1.51609
1.56606
1.61667
1.66789
1.71972
1.77214
1.82514
1.87871
1.93283
1.98751
2.04274
2.09852
2.15485
2.21173
2.26917
2.32719
2.38579
2.445
2.50484
2.56534
2.62652
2.68841
2.75106
2.8145
2.87878
2.94393
3.01
3.07705
3.14511
3.21423
3.28446
3.35584
3.4284
3.50218
3.5772
3.65348
3.73103
3.80984
3.88986
3.97097
4.05311
4.13619
4.22012
4.3048
4.39008
4.47581
4.56179
4.64784
4.73376
4.81935
4.90439
4.98863
5.07186
5.15381
5.23427
5.31298
5.38977
5.46426
5.53625
5.60554
5.67194
5.73528
5.7954
5.85217
5.90546
5.95518
6.00126
6.04364
6.08228
6.11711
6.14833
6.17594
6.19996
6.22042
6.23735
6.25083
6.26095
6.26777
6.27139
6.2719
6.26939
6.26394
6.25564
6.24456
6.23077
6.21433
6.19529
6.17371
6.1496
6.12299
6.0939
6.06232
6.02826
5.9917
5.95261
5.91098
5.86677
5.81995
5.77049
5.71838
5.66353
5.60589
5.54534
5.48202
5.41601
5.34738
5.27618
5.20249
5.12637
5.04786
4.96703
4.884
4.79893
4.7119
4.62303
4.53242
4.44019
4.34647
4.25141
4.15527
4.0582
3.96038
3.86199
3.76325
3.66439
3.56562
3.46716
3.36924
3.27208
3.1759
3.08091
2.98733
2.89535
2.80516
2.71694
2.63086
2.54708
2.46575
2.38702
2.31103
2.23794
2.16788
2.10099
2.0373
1.97615
1.9177
0.124558
0.212893
0.269161
0.311175
0.347059
0.379943
0.411319
0.442013
0.472522
0.503167
0.53416
0.565645
0.597718
0.630447
0.663879
0.698048
0.732977
0.768686
0.805189
0.842498
0.880621
0.919567
0.959343
0.999952
1.0414
1.08368
1.1268
1.17075
1.21553
1.26113
1.30755
1.35477
1.40278
1.45158
1.50114
1.55146
1.60253
1.65432
1.70683
1.76004
1.81394
1.86853
1.9238
1.97973
2.03633
2.09359
2.15151
2.2101
2.26937
2.32931
2.38995
2.45131
2.51339
2.57624
2.63987
2.70432
2.76962
2.83581
2.90294
2.97106
3.0402
3.11043
3.18179
3.25432
3.32809
3.40313
3.47949
3.55722
3.63634
3.71688
3.79884
3.88223
3.96692
4.05289
4.14006
4.22838
4.31774
4.40805
4.49922
4.59105
4.68327
4.77574
4.86825
4.96059
5.05252
5.14379
5.23414
5.32332
5.41105
5.49707
5.58113
5.66291
5.74217
5.81868
5.8922
5.96254
6.0295
6.09293
6.15269
6.20864
6.2607
6.30879
6.35284
6.39284
6.42872
6.46071
6.48877
6.51291
6.5332
6.54967
6.56241
6.57151
6.57704
6.57911
6.5778
6.57321
6.56542
6.55451
6.54055
6.52363
6.50378
6.48106
6.45551
6.42716
6.39601
6.36208
6.32536
6.28584
6.24348
6.19827
6.15017
6.09914
6.04515
5.98816
5.92814
5.86489
5.79847
5.72899
5.65654
5.58121
5.50306
5.42218
5.33865
5.25254
5.16396
5.07303
4.9799
4.88469
4.78754
4.68859
4.588
4.48593
4.38258
4.27818
4.17293
4.06706
3.96078
3.85433
3.74796
3.64191
3.53643
3.43175
3.32812
3.22576
3.1249
3.02576
2.92853
2.83342
2.74058
2.6502
2.56242
2.47739
2.39525
2.31612
2.24013
2.1674
2.09802
2.03201
1.96875
1.90835
0.123409
0.208925
0.264546
0.306191
0.341734
0.374248
0.405204
0.435417
0.46538
0.495412
0.525728
0.556473
0.587751
0.619633
0.652174
0.685417
0.719393
0.754131
0.789653
0.825981
0.863131
0.90112
0.939963
0.979672
1.02026
1.06173
1.1041
1.14736
1.19152
1.23658
1.28254
1.3294
1.37715
1.42578
1.47529
1.52567
1.57692
1.62901
1.68194
1.73571
1.7903
1.84571
1.90192
1.95894
2.01675
2.07536
2.13476
2.19496
2.25595
2.31776
2.38038
2.44382
2.50812
2.57328
2.63933
2.7063
2.77422
2.84313
2.91308
2.9841
3.05625
3.12958
3.20413
3.27994
3.35707
3.43558
3.51551
3.59691
3.67982
3.76425
3.85022
3.93766
4.02655
4.11685
4.20851
4.30146
4.39561
4.49088
4.58713
4.68419
4.78188
4.88001
4.97836
5.07672
5.17483
5.27244
5.36927
5.46505
5.55947
5.65226
5.74312
5.83176
5.91787
6.00121
6.08151
6.15855
6.2321
6.30197
6.368
6.43003
6.48795
6.54166
6.59108
6.63615
6.67682
6.71317
6.74529
6.77317
6.79685
6.81638
6.83183
6.84328
6.85083
6.85455
6.85455
6.85092
6.84375
6.83312
6.81911
6.8018
6.78124
6.75749
6.73059
6.70057
6.66745
6.63124
6.59193
6.5495
6.50394
6.4552
6.40326
6.34807
6.28959
6.22776
6.16255
6.09377
6.02153
5.94594
5.86711
5.78513
5.70009
5.6121
5.52126
5.42767
5.33145
5.23275
5.13173
5.02853
4.92332
4.81627
4.70759
4.59748
4.48615
4.37384
4.26081
4.14729
4.03355
3.91984
3.80642
3.69358
3.58155
3.47061
3.361
3.25297
3.14674
3.04253
2.94054
2.84097
2.74399
2.64976
2.55843
2.47013
2.38499
2.30312
2.22463
2.1496
2.07811
2.01013
1.94512
1.88314
0.121087
0.203401
0.25807
0.299134
0.334156
0.36613
0.396499
0.426064
0.455314
0.484566
0.514037
0.543879
0.574203
0.605066
0.636535
0.668662
0.701487
0.735048
0.769377
0.804502
0.840451
0.877249
0.914921
0.953487
0.992968
1.03338
1.07474
1.11707
1.16037
1.20465
1.24992
1.29618
1.34345
1.39171
1.44097
1.49122
1.54247
1.59471
1.64793
1.70213
1.7573
1.81344
1.87053
1.92859
1.98759
2.04754
2.10843
2.17027
2.23305
2.29677
2.36144
2.42707
2.49367
2.56124
2.62982
2.6994
2.77004
2.84174
2.91455
2.98849
3.06362
3.13998
3.2176
3.29653
3.37683
3.45854
3.54171
3.62639
3.7126
3.80037
3.88967
3.9805
4.07284
4.16667
4.26196
4.35865
4.45667
4.55593
4.65631
4.75767
4.85983
4.96263
5.06584
5.16925
5.2726
5.37563
5.47806
5.57959
5.67991
5.77872
5.8757
5.97053
6.0629
6.15251
6.23909
6.32236
6.40208
6.47804
6.55002
6.61786
6.6814
6.74054
6.79516
6.84519
6.89057
6.93125
6.9674
6.999
7.02607
7.04867
7.06686
7.08072
7.09033
7.09579
7.09718
7.09459
7.08813
7.07787
7.0639
7.0463
7.02512
7.00043
6.97226
6.94066
6.90565
6.86723
6.82539
6.78014
6.73143
6.67923
6.62351
6.56422
6.50131
6.4347
6.36435
6.29011
6.21213
6.13053
6.04542
5.95692
5.86513
5.77019
5.67221
5.57132
5.46768
5.36145
5.2528
5.1419
5.02896
4.91419
4.79781
4.68005
4.56118
4.44144
4.32111
4.20047
4.07979
3.95937
3.83947
3.7204
3.60242
3.48579
3.37079
3.25766
3.14662
3.03791
2.93173
2.82825
2.72767
2.63011
2.53574
2.44466
2.357
2.27284
2.19228
2.11538
2.04217
1.97263
1.90625
1.8431
0.117838
0.196373
0.249855
0.290185
0.324551
0.355852
0.385499
0.414277
0.442667
0.470984
0.499444
0.528199
0.55736
0.587009
0.617214
0.648032
0.679514
0.711704
0.744643
0.77837
0.812923
0.848337
0.884646
0.921882
0.960076
0.999255
1.03945
1.08068
1.12296
1.16632
1.21078
1.25634
1.30303
1.35085
1.3998
1.4499
1.50114
1.55354
1.60709
1.66178
1.71762
1.77461
1.83274
1.892
1.95239
2.0139
2.07653
2.14027
2.20511
2.27105
2.33809
2.40623
2.47545
2.54576
2.61718
2.68969
2.76331
2.83806
2.91395
2.991
3.06924
3.14869
3.22938
3.31136
3.39466
3.47931
3.56536
3.65284
3.74178
3.83217
3.92406
4.01744
4.11232
4.20871
4.30658
4.4059
4.50663
4.60869
4.71199
4.81642
4.92183
5.02805
5.1349
5.24216
5.34958
5.45691
5.56385
5.67011
5.77536
5.87928
5.98153
6.08178
6.17968
6.27492
6.36717
6.45615
6.54157
6.62317
6.70074
6.77407
6.84297
6.9073
6.96693
7.02177
7.07174
7.11677
7.15687
7.19214
7.22258
7.24824
7.26917
7.28544
7.29714
7.30435
7.30715
7.30565
7.29993
7.29008
7.27618
7.25831
7.23652
7.2109
7.18147
7.14828
7.11135
7.07069
7.0263
6.97817
6.92627
6.87057
6.81103
6.74759
6.6802
6.60877
6.53323
6.45352
6.3698
6.2822
6.19085
6.09589
5.99745
5.89567
5.7907
5.68269
5.57183
5.45829
5.34228
5.22401
5.10369
4.98158
4.85792
4.73298
4.60704
4.48039
4.35332
4.22612
4.09911
3.97259
3.84685
3.72219
3.59889
3.47725
3.35751
3.23993
3.12475
3.01219
2.90244
2.79569
2.69211
2.59183
2.49499
2.4017
2.31206
2.22613
2.144
2.0657
1.99125
1.92061
1.8533
1.78939
0.114277
0.18916
0.241208
0.280614
0.314176
0.344686
0.373507
0.401404
0.428847
0.456145
0.483514
0.511108
0.539046
0.567418
0.5963
0.62576
0.655855
0.68664
0.718166
0.750483
0.783637
0.817676
0.852644
0.888585
0.925538
0.963545
1.00264
1.04287
1.08425
1.12681
1.1706
1.21562
1.26191
1.30949
1.35836
1.40855
1.46006
1.51291
1.5671
1.62263
1.67951
1.73773
1.79728
1.85818
1.92039
1.98392
2.04876
2.11488
2.18227
2.25092
2.3208
2.3919
2.4642
2.53768
2.61231
2.6881
2.76501
2.84303
2.92216
3.00239
3.08372
3.16615
3.24968
3.33433
3.42011
3.50705
3.59519
3.68453
3.7751
3.86697
3.96017
4.05473
4.1507
4.24809
4.34692
4.44718
4.54886
4.65193
4.75634
4.86199
4.96878
5.07659
5.18524
5.29455
5.40429
5.5142
5.62401
5.73342
5.8421
5.9497
6.05589
6.16029
6.26254
6.3623
6.45921
6.55295
6.6432
6.72968
6.81212
6.89029
6.96397
7.03299
7.09719
7.15645
7.21068
7.25977
7.30367
7.34246
7.37615
7.40478
7.42839
7.44705
7.46082
7.4698
7.47406
7.4737
7.46878
7.45941
7.44566
7.42761
7.40532
7.37885
7.34825
7.31357
7.27482
7.23202
7.18517
7.13426
7.07927
7.02016
6.95689