/*--------------------------------*- C++ -*----------------------------------*\
| =========                 |                                                 |
| \\      /  F ield         | OpenFOAM: The Open Source CFD Toolbox           |
|  \\    /   O peration     | Version:  plus                                  |
|   \\  /    A nd           | Website:  www.openfoam.com                      |
|    \\/     M anipulation  |                                                 |
\*---------------------------------------------------------------------------*/
FoamFile
{
    version     2.0;
    format      ascii;
    class       volScalarField;
    location    "100";
    object      nut;
}
// * * * * * * * * * * * * * * * * * * * * * * * * * * * * * * * * * * * * * //

dimensions      [0 2 -1 0 0 0 0];


internalField   nonuniform List<scalar> 
12225
(
3.10726e-05
3.72804e-05
4.10631e-05
4.3313e-05
4.46056e-05
4.52988e-05
4.56169e-05
4.57015e-05
4.5643e-05
4.54987e-05
4.53051e-05
4.50853e-05
4.48542e-05
4.46211e-05
4.43917e-05
4.41694e-05
4.39541e-05
4.37686e-05
0.00011597
6.808e-05
5.08358e-05
4.19933e-05
3.69415e-05
3.38475e-05
3.1855e-05
3.05311e-05
2.96395e-05
2.90426e-05
2.86551e-05
2.84219e-05
2.83057e-05
2.82803e-05
2.83267e-05
2.84303e-05
2.85748e-05
2.87311e-05
0.000369691
0.000222123
0.000160526
0.000126046
0.000104338
8.97174e-05
7.93402e-05
7.16622e-05
6.57931e-05
6.11903e-05
5.75065e-05
5.45101e-05
5.20414e-05
4.99869e-05
4.8263e-05
4.68027e-05
4.55386e-05
4.44822e-05
0.000643175
0.00047462
0.000372857
0.00030721
0.000262073
0.000229621
0.000205417
0.000186796
0.000172096
0.000160239
0.000150501
0.00014238
0.000135518
0.000129656
0.000124601
0.000120202
0.000116352
0.000113074
0.000782978
0.000684113
0.00059578
0.000524455
0.000468007
0.000423284
0.000387505
0.000358504
0.000334677
0.000314852
0.000298164
0.000283969
0.000271781
0.000261232
0.000252036
0.000243975
0.000236893
0.000230777
0.000831986
0.000790862
0.000741148
0.000691183
0.000644871
0.000603602
0.000567494
0.00053612
0.000508889
0.000485207
0.000464541
0.000446432
0.000430494
0.00041641
0.000403917
0.000392803
0.00038291
0.000374227
0.000846544
0.000832366
0.000810943
0.000785031
0.000757172
0.00072921
0.000702282
0.000676988
0.000653584
0.000632122
0.000612542
0.000594727
0.000578537
0.000563829
0.000550466
0.000538324
0.000527307
0.000517461
0.000850452
0.000846004
0.000838208
0.000827304
0.000813981
0.000799058
0.00078328
0.000767237
0.00075136
0.000735938
0.000721156
0.000707121
0.000693884
0.000681461
0.000669847
0.000659021
0.000648968
0.000639797
0.000851413
0.000849951
0.000847321
0.000843306
0.000837906
0.000831277
0.000823659
0.000815317
0.000806501
0.000797427
0.000788276
0.000779186
0.000770264
0.000761589
0.000753217
0.000745187
0.000737534
0.000730391
0.000851628
0.00085097
0.000849987
0.000848533
0.000846515
0.0008439
0.000840708
0.000836996
0.000832842
0.000828337
0.000823568
0.000818619
0.000813563
0.000808467
0.000803383
0.000798358
0.000793437
0.00078873
0.000851669
0.000851202
0.000850672
0.000850022
0.000849199
0.000848163
0.00084689
0.000845373
0.000843618
0.000841643
0.000839473
0.000837137
0.000834665
0.00083209
0.000829441
0.000826745
0.000824033
0.000821375
0.000851674
0.000851244
0.000850815
0.000850368
0.00084988
0.000849329
0.000848698
0.000847973
0.000847147
0.000846218
0.000845187
0.000844062
0.00084285
0.000841563
0.000840213
0.000838811
0.000837374
0.000835946
0.000851673
0.000851249
0.000850845
0.000850452
0.000850065
0.000849672
0.000849267
0.00084884
0.000848386
0.000847899
0.000847377
0.000846817
0.000846221
0.00084559
0.000844926
0.000844233
0.000843517
0.000842803
0.00085167
0.000851246
0.000850845
0.000850464
0.0008501
0.000849751
0.000849412
0.000849081
0.000848754
0.000848428
0.0008481
0.00084777
0.000847434
0.000847093
0.000846745
0.000846391
0.000846032
0.000845684
0.000851668
0.000851242
0.000850839
0.000850458
0.000850098
0.000849755
0.000849429
0.000849118
0.00084882
0.000848534
0.000848259
0.000847993
0.000847735
0.000847485
0.00084724
0.000847001
0.000846769
0.000846554
0.000851666
0.000851239
0.000850834
0.000850452
0.000850089
0.000849746
0.00084942
0.00084911
0.000848815
0.000848535
0.000848267
0.000848012
0.000847769
0.000847535
0.000847312
0.000847098
0.000846895
0.000846713
0.000851665
0.000851236
0.00085083
0.000850446
0.000850082
0.000849737
0.000849409
0.000849098
0.000848802
0.00084852
0.000848252
0.000847996
0.000847752
0.000847519
0.000847297
0.000847085
0.000846885
0.000846707
0.000851664
0.000851235
0.000850828
0.000850443
0.000850077
0.000849731
0.000849402
0.000849089
0.000848791
0.000848508
0.000848238
0.00084798
0.000847734
0.0008475
0.000847276
0.000847063
0.000846861
0.000846682
0.000851664
0.000851235
0.000850828
0.000850442
0.000850076
0.000849729
0.000849399
0.000849085
0.000848786
0.000848501
0.00084823
0.000847971
0.000847724
0.000847488
0.000847263
0.000847047
0.000846844
0.000846663
0.000851665
0.000851236
0.000850829
0.000850444
0.000850078
0.000849731
0.000849401
0.000849086
0.000848787
0.0008485
0.000848227
0.000847966
0.000847715
0.000847475
0.000847244
0.000847023
0.000846813
0.000846624
0.000851666
0.000851238
0.000850832
0.000850447
0.00085008
0.00084973
0.000849394
0.000849071
0.000848759
0.000848456
0.000848161
0.000847872
0.000847588
0.000847308
0.000847032
0.000846759
0.000846491
0.000846239
0.000851667
0.000851238
0.000850828
0.000850429
0.000850035
0.00084964
0.000849237
0.00084882
0.000848384
0.000847925
0.000847442
0.000846933
0.000846397
0.000845836
0.00084525
0.000844642
0.000844016
0.000843387
0.000851663
0.000851204
0.000850712
0.00085015
0.000849485
0.000848691
0.000847749
0.000846651
0.000845395
0.000843987
0.000842438
0.00084076
0.000838971
0.000837088
0.000835127
0.000833106
0.000831043
0.000828973
0.000851578
0.000850777
0.000849525
0.000847681
0.000845174
0.000841998
0.000838196
0.000833846
0.000829041
0.000823876
0.000818447
0.000812838
0.000807125
0.000801373
0.000795634
0.000789951
0.000784364
0.000778936
0.000850693
0.000847109
0.000840898
0.000832164
0.000821323
0.000808925
0.000795519
0.000781579
0.000767481
0.000753506
0.000739855
0.000726662
0.000714013
0.000701956
0.000690512
0.000679685
0.000669467
0.000659891
0.000843599
0.000823611
0.000795649
0.000763695
0.000730628
0.000698307
0.00066777
0.000639488
0.000613593
0.000590034
0.00056867
0.000549322
0.000531797
0.00051591
0.000501487
0.000488372
0.000476428
0.00046557
0.000798974
0.000716524
0.000637743
0.000570396
0.000514409
0.000468222
0.000430038
0.000398246
0.000371547
0.000348929
0.000329607
0.00031297
0.00029854
0.00028594
0.00027487
0.00026509
0.00025641
0.000248689
0.000605335
0.000437544
0.000341966
0.000280276
0.000237283
0.000205989
0.00018243
0.000164188
0.000149733
0.000138062
0.000128487
0.000120524
0.000113823
0.000108127
0.000103241
9.90186e-05
9.53516e-05
9.21694e-05
0.000228401
0.000138561
0.000102671
8.24753e-05
6.96483e-05
6.10079e-05
5.49291e-05
5.05066e-05
4.72054e-05
4.46917e-05
4.27475e-05
4.12253e-05
4.00225e-05
3.90656e-05
3.83011e-05
3.76895e-05
3.72012e-05
3.68188e-05
3.56041e-05
4.09355e-05
4.47623e-05
4.75226e-05
4.97547e-05
5.15312e-05
5.29218e-05
5.39907e-05
5.47954e-05
5.53858e-05
5.5804e-05
5.60848e-05
5.62568e-05
5.63435e-05
5.63636e-05
5.63324e-05
5.62621e-05
5.61615e-05
6.98607e-06
1.86808e-05
2.08154e-05
2.25586e-05
2.42962e-05
2.60354e-05
2.80667e-05
3.0091e-05
3.21374e-05
3.41706e-05
3.61617e-05
3.80977e-05
3.99758e-05
4.17981e-05
4.35699e-05
4.52986e-05
4.69941e-05
4.8667e-05
5.02993e-05
5.18912e-05
5.34445e-05
5.49611e-05
5.64429e-05
5.78915e-05
5.93085e-05
6.06953e-05
6.20534e-05
6.33841e-05
6.46886e-05
6.59682e-05
6.72239e-05
6.84571e-05
6.96686e-05
7.08596e-05
7.20312e-05
7.31842e-05
7.43196e-05
7.54385e-05
7.65416e-05
7.76299e-05
7.87042e-05
7.97654e-05
8.08141e-05
8.18511e-05
8.28772e-05
8.3893e-05
8.48991e-05
8.5896e-05
8.68842e-05
8.78643e-05
8.88365e-05
8.98012e-05
9.07586e-05
9.17089e-05
9.26523e-05
9.35887e-05
9.45181e-05
9.54404e-05
9.63553e-05
9.72626e-05
9.81619e-05
9.90527e-05
9.99345e-05
0.000100807
0.000101668
0.000102519
0.000103358
0.000104183
0.000104995
0.000105792
0.000106574
0.00010734
0.00010809
0.000108824
0.000109544
0.000110256
0.000110966
0.000111666
0.000112312
0.000112924
0.000113504
0.000114051
0.000114563
0.000115038
0.000115474
0.00011587
0.000116226
0.000116541
0.000116812
0.000117036
0.00011721
0.000117333
0.000117401
0.000117414
0.000117374
0.00011728
0.000117127
0.000116902
0.000116581
0.00011623
0.000115887
0.000115598
0.000115339
0.00011506
0.000114765
0.000114457
0.000114137
0.00011381
0.000113478
0.000113145
0.000112812
0.000112482
0.000112157
0.000111839
0.00011153
0.00011123
0.00011094
0.00011066
0.000110391
0.000110134
0.000109886
0.000109648
0.00010942
0.000109199
0.000108986
0.000108777
0.000108571
0.000108366
0.000108159
0.000107946
0.000107726
0.000107495
0.000107249
0.000106984
0.000106693
0.00010637
0.000106002
0.000105608
0.000105313
0.000105015
0.000104695
0.000104351
0.000103982
0.000103586
0.000103163
0.00010271
0.000102229
0.000101717
0.000101174
0.000100601
9.99959e-05
9.93598e-05
9.86923e-05
9.79934e-05
9.72632e-05
9.65022e-05
9.57112e-05
9.48904e-05
9.40403e-05
9.3162e-05
9.22566e-05
9.13246e-05
9.03671e-05
8.93862e-05
8.83819e-05
8.73561e-05
8.6309e-05
8.52415e-05
8.41571e-05
8.30467e-05
8.1915e-05
8.07643e-05
7.96938e-05
7.8513e-05
7.70541e-05
7.5983e-05
7.50936e-05
7.25226e-05
7.07483e-05
6.90917e-05
1.01015e-05
6.25542e-05
0.000114622
0.000145865
0.000162915
0.000173425
0.000181677
0.000190082
0.000199293
0.000209353
0.00022014
0.000231507
0.000243318
0.00025546
0.000267837
0.00028037
0.000293002
0.000305711
0.00031847
0.000331253
0.000344038
0.000356804
0.000369532
0.000382205
0.000394809
0.000407328
0.000419753
0.000432072
0.000444278
0.000456362
0.00046832
0.000480146
0.000491839
0.000503396
0.000514818
0.000526104
0.000537258
0.000548283
0.000559182
0.000569961
0.000580626
0.000591184
0.000601642
0.000612009
0.000622294
0.000632505
0.000642652
0.000652745
0.000662794
0.000672808
0.000682798
0.000692771
0.000702738
0.000712707
0.000722686
0.000732682
0.0007427
0.000752747
0.000762827
0.000772941
0.000783092
0.000793279
0.000803501
0.000813755
0.000824033
0.00083433
0.000844635
0.000854936
0.000865217
0.00087546
0.000885644
0.000895742
0.000905722
0.000915545
0.000925163
0.000934517
0.000943527
0.000952078
0.000960355
0.000968408
0.000976223
0.000983778
0.000991048
0.000998009
0.00100464
0.00101091
0.00101681
0.0010223
0.00102737
0.001032
0.00103615
0.00103981
0.00104297
0.0010456
0.00104768
0.00104915
0.00104998
0.00105012
0.00104957
0.00104844
0.00104676
0.00104451
0.0010415
0.001038
0.0010341
0.00102985
0.00102528
0.00102044
0.00101536
0.00101009
0.00100468
0.000999158
0.000993565
0.000987936
0.000982305
0.000976702
0.000971154
0.000965686
0.000960319
0.000955072
0.000949964
0.00094501
0.000940222
0.000935611
0.000931183
0.000926941
0.000922881
0.000918996
0.00091527
0.000911687
0.000908222
0.000904851
0.000901545
0.00089827
0.000894988
0.000891646
0.000888167
0.00088459
0.00088039
0.000875954
0.000871484
0.000866989
0.000862464
0.000857897
0.000853279
0.0008486
0.000843848
0.000839014
0.000834088
0.000829061
0.000823928
0.000818682
0.000813317
0.000807826
0.000802203
0.000796447
0.000790556
0.000784526
0.000778355
0.000772044
0.000765597
0.000759009
0.000752284
0.000745429
0.000738442
0.000731327
0.00072408
0.000716701
0.000709205
0.000701551
0.000693755
0.000685741
0.00067791
0.000670088
0.000661144
0.000652435
0.0006457
0.000634615
0.000620561
0.000604162
1.24666e-05
9.78395e-05
0.00018273
0.000241252
0.000280548
0.000308389
0.00033048
0.000350443
0.000370193
0.000390568
0.000411836
0.000434002
0.000456965
0.000480597
0.000504771
0.000529374
0.000554313
0.000579512
0.000604905
0.000630432
0.000656042
0.000681686
0.000707323
0.000732915
0.000758428
0.000783831
0.0008091
0.000834209
0.000859138
0.000883871
0.000908394
0.000932693
0.000956761
0.000980591
0.00100418
0.00102752
0.00105062
0.00107348
0.00109611
0.0011185
0.00114067
0.00116264
0.0011844
0.00120598
0.00122739
0.00124864
0.00126975
0.00129073
0.00131161
0.00133239
0.0013531
0.00137376
0.00139437
0.00141495
0.00143552
0.00145608
0.00147666
0.00149725
0.00151787
0.00153852
0.0015592
0.00157991
0.00160065
0.00162142
0.00164219
0.00166296
0.00168371
0.00170442
0.00172505
0.00174559
0.00176597
0.00178618
0.00180614
0.0018258
0.0018451
0.00186395
0.00188228
0.0019
0.00191721
0.00193394
0.00195016
0.00196583
0.00198091
0.00199534
0.00200908
0.00202208
0.00203429
0.00204568
0.0020562
0.00206581
0.00207446
0.00208213
0.00208878
0.00209439
0.00209891
0.00210232
0.00210456
0.00210564
0.00210558
0.00210442
0.00210219
0.00209881
0.00209434
0.00208899
0.00208286
0.00207604
0.0020686
0.00206061
0.00205213
0.00204325
0.00203404
0.00202455
0.00201485
0.00200501
0.00199507
0.00198509
0.00197511
0.00196517
0.0019553
0.00194552
0.00193586
0.00192634
0.00191696
0.00190773
0.00189865
0.00188971
0.00188088
0.00187215
0.00186349
0.00185485
0.0018462
0.00183748
0.00182866
0.00181968
0.0018105
0.00180105
0.00179123
0.00178105
0.00176992
0.0017584
0.00174663
0.00173463
0.0017224
0.00170993
0.00169719
0.00168418
0.00167089
0.00165731
0.00164342
0.00162922
0.00161472
0.0015999
0.00158477
0.00156933
0.00155358
0.00153752
0.00152117
0.00150452
0.0014876
0.0014704
0.00145295
0.00143526
0.00141733
0.00139918
0.00138083
0.00136228
0.00134355
0.00132464
0.00130557
0.00128633
0.00126694
0.00124739
0.00122795
0.00120861
0.00118886
0.0011694
0.00115125
0.001131
0.00110793
0.00108064
1.42177e-05
0.000122572
0.000234657
0.000317875
0.00037813
0.000423351
0.000459808
0.000491856
0.000522207
0.000552373
0.000583089
0.000614641
0.000647081
0.000680349
0.000714341
0.000748943
0.000784043
0.000819541
0.000855345
0.000891373
0.000927551
0.000963812
0.0010001
0.00103636
0.00107254
0.0011086
0.0011445
0.00118022
0.00121571
0.00125096
0.00128594
0.00132064
0.00135504
0.00138913
0.00142289
0.00145634
0.00148945
0.00152224
0.0015547
0.00158685
0.00161868
0.00165021
0.00168146
0.00171243
0.00174315
0.00177362
0.00180387
0.00183392
0.00186378
0.00189347
0.00192302
0.00195244
0.00198176
0.00201099
0.00204014
0.00206924
0.00209829
0.00212731
0.00215631
0.00218528
0.00221424
0.00224319
0.00227211
0.00230101
0.00232987
0.00235867
0.00238739
0.00241601
0.00244449
0.0024728
0.00250089
0.00252871
0.00255622
0.00258334
0.00261001
0.00263616
0.00266171
0.00268657
0.00271076
0.00273427
0.00275707
0.00277911
0.00280032
0.00282065
0.00284002
0.00285839
0.00287568
0.00289184
0.00290681
0.00292054
0.00293297
0.00294407
0.00295379
0.0029621
0.00296896
0.00297435
0.00297825
0.00298066
0.00298161
0.00298111
0.00297919
0.00297585
0.0029712
0.00296539
0.00295851
0.00295065
0.00294189
0.00293232
0.00292203
0.00291108
0.00289957
0.00288758
0.00287517
0.00286242
0.00284938
0.00283612
0.00282269
0.00280912
0.00279545
0.00278171
0.00276791
0.00275407
0.0027402
0.00272628
0.00271232
0.00269828
0.00268414
0.00266988
0.00265545
0.00264081
0.00262591
0.0026107
0.00259515
0.00257921
0.00256282
0.00254596
0.00252858
0.00251045
0.00249147
0.00247196
0.00245202
0.00243167
0.00241091
0.00238972
0.00236812
0.00234608
0.00232362
0.00230073
0.0022774
0.00225365
0.00222948
0.0022049
0.00217992
0.00215457
0.00212884
0.00210275
0.00207634
0.00204961
0.00202258
0.00199529
0.00196775
0.00193998
0.00191202
0.00188387
0.00185556
0.00182713
0.00179856
0.00176991
0.00174118
0.00171239
0.00168358
0.00165479
0.00162636
0.0015983
0.00157038
0.00154296
0.00151636
0.00148914
0.0014603
0.00142873
1.58808e-05
0.000138435
0.000274153
0.000379915
0.000459719
0.000521473
0.000571807
0.000615572
0.000656038
0.000695241
0.000734344
0.000773944
0.000814293
0.000855454
0.000897389
0.000940014
0.000983228
0.00102692
0.001071
0.00111537
0.00115995
0.00120464
0.00124939
0.00129413
0.0013388
0.00138335
0.00142773
0.00147191
0.00151584
0.00155949
0.00160284
0.00164586
0.00168853
0.00173084
0.00177276
0.0018143
0.00185544
0.00189618
0.00193653
0.00197648
0.00201604
0.00205522
0.00209403
0.00213248
0.00217059
0.00220838
0.00224586
0.00228304
0.00231997
0.00235664
0.00239309
0.00242932
0.00246538
0.00250127
0.00253701
0.00257261
0.00260811
0.0026435
0.00267879
0.00271401
0.00274914
0.0027842
0.00281917
0.00285406
0.00288885
0.00292354
0.00295808
0.00299248
0.00302669
0.00306067
0.0030944
0.00312781
0.00316087
0.00319351
0.00322568
0.0032573
0.0032883
0.00331856
0.00334808
0.00337683
0.00340476
0.00343182
0.00345793
0.00348303
0.00350704
0.00352989
0.0035515
0.00357181
0.00359074
0.00360824
0.00362424
0.00363869
0.00365154
0.00366275
0.00367228
0.00368012
0.00368623
0.00369061
0.00369329
0.00369429
0.0036936
0.00369129
0.00368746
0.00368222
0.00367566
0.00366785
0.00365888
0.00364882
0.00363778
0.00362582
0.00361304
0.00359951
0.00358531
0.0035705
0.00355516
0.00353935
0.0035231
0.00350646
0.00348947
0.00347216
0.00345453
0.0034366
0.00341838
0.00339984
0.00338099
0.0033618
0.00334225
0.00332229
0.0033019
0.00328104
0.00325966
0.00323773
0.00321522
0.00319208
0.0031683
0.00314383
0.0031187
0.00309257
0.00306565
0.00303808
0.00300995
0.00298127
0.00295205
0.00292229
0.00289201
0.00286121
0.0028299
0.0027981
0.00276582
0.00273306
0.00269986
0.00266623
0.0026322
0.00259779
0.00256303
0.00252795
0.00249257
0.00245693
0.00242106
0.00238499
0.00234874
0.00231236
0.00227588
0.0022393
0.00220268
0.00216605
0.00212939
0.0020928
0.00205624
0.00201978
0.00198368
0.00194794
0.00191273
0.0018781
0.00184404
0.00181073
0.00177829
0.00174616
0.00171356
0.00167989
1.72079e-05
0.000149426
0.000304094
0.000429421
0.000526892
0.000603962
0.000667357
0.000722223
0.000772211
0.000819754
0.000866375
0.00091296
0.000959979
0.00100764
0.00105601
0.00110505
0.0011547
0.00120487
0.00125547
0.00130639
0.00135754
0.00140885
0.00146024
0.00151164
0.00156297
0.00161419
0.00166524
0.00171606
0.00176663
0.0018169
0.00186684
0.00191642
0.00196561
0.00201439
0.00206274
0.00211065
0.00215812
0.00220512
0.00225166
0.00229774
0.00234336
0.00238853
0.00243325
0.00247754
0.0025214
0.00256486
0.00260793
0.00265063
0.00269297
0.00273499
0.00277669
0.00281811
0.00285925
0.00290015
0.00294083
0.0029813
0.00302157
0.00306167
0.00310162
0.00314141
0.00318106
0.00322057
0.00325996
0.0032992
0.00333831
0.00337727
0.00341606
0.00345467
0.00349307
0.00353124
0.00356914
0.00360674
0.00364399
0.00368083
0.00371723
0.00375313
0.00378839
0.00382295
0.00385678
0.00388984
0.00392208
0.00395344
0.00398383
0.00401318
0.00404141
0.00406843
0.00409415
0.00411851
0.00414142
0.0041628
0.00418257
0.00420068
0.00421706
0.00423166
0.00424443
0.00425533
0.00426435
0.00427146
0.00427668
0.00428001
0.00428145
0.00428101
0.00427886
0.00427506
0.00426968
0.00426278
0.00425445
0.00424476
0.00423379
0.00422163
0.00420835
0.00419403
0.00417875
0.00416256
0.00414555
0.00412775
0.00410923
0.00409002
0.00407016
0.00404968
0.00402859
0.0040069
0.00398461
0.00396172
0.00393823
0.0039141
0.00388932
0.00386387
0.00383771
0.00381081
0.00378315
0.00375469
0.00372542
0.00369531
0.00366435
0.00363251
0.00359982
0.00356605
0.00353142
0.00349606
0.00346002
0.00342332
0.00338599
0.00334804
0.00330949
0.00327038
0.00323072
0.00319054
0.00314986
0.00310872
0.00306713
0.00302512
0.00298275
0.00294006
0.00289707
0.00285382
0.00281034
0.00276669
0.0027229
0.00267902
0.00263505
0.00259107
0.00254712
0.00250318
0.00245931
0.00241562
0.00237197
0.00232862
0.00228566
0.00224313
0.00220116
0.00215983
0.00211926
0.00207952
0.00204069
0.0020029
0.00196626
0.00193056
0.00189522
0.00185995
1.82653e-05
0.000156755
0.000326101
0.000467848
0.000580815
0.000671698
0.000747091
0.000812259
0.000871087
0.000926291
0.000979677
0.00103238
0.00108508
0.00113814
0.00119173
0.0012459
0.00130063
0.00135586
0.00141151
0.00146751
0.00152375
0.00158017
0.00163667
0.00169319
0.00174966
0.00180602
0.0018622
0.00191816
0.00197385
0.00202923
0.00208425
0.00213888
0.0021931
0.00224688
0.00230019
0.00235301
0.00240534
0.00245716
0.00250846
0.00255925
0.00260951
0.00265925
0.00270848
0.0027572
0.00280543
0.00285317
0.00290045
0.00294728
0.00299368
0.00303967
0.00308528
0.00313051
0.0031754
0.00321997
0.00326424
0.00330823
0.00335197
0.00339546
0.00343874
0.00348181
0.0035247
0.0035674
0.00360994
0.00365231
0.00369452
0.00373657
0.00377845
0.00382015
0.00386167
0.00390297
0.00394404
0.00398486
0.00402538
0.00406557
0.0041054
0.0041448
0.00418363
0.00422186
0.00425946
0.00429638
0.00433257
0.00436794
0.00440243
0.00443593
0.00446836
0.00449963
0.00452963
0.00455828
0.00458547
0.00461112
0.00463513
0.00465743
0.00467792
0.00469655
0.00471324
0.00472796
0.00474064
0.00475127
0.00475981
0.00476629
0.00477068
0.00477294
0.00477327
0.00477168
0.00476825
0.00476303
0.00475609
0.00474749
0.00473732
0.00472565
0.00471254
0.00469808
0.00468234
0.00466537
0.00464725
0.00462803
0.00460775
0.00458647
0.00456421
0.00454101
0.00451688
0.00449183
0.00446589
0.00443903
0.00441126
0.00438257
0.00435294
0.00432236
0.00429079
0.00425823
0.00422466
0.00419005
0.0041544
0.0041177
0.00407994
0.00404111
0.00400121
0.00396018
0.00391821
0.0038754
0.00383181
0.00378747
0.00374242
0.00369668
0.00365028
0.00360328
0.00355571
0.00350761
0.00345902
0.00340997
0.0033605
0.00331065
0.00326046
0.00321002
0.00315936
0.00310852
0.00305753
0.00300643
0.00295534
0.00290426
0.00285319
0.00280223
0.00275147
0.00270081
0.00265034
0.00260035
0.00255076
0.00250171
0.00245328
0.00240557
0.00235867
0.00231268
0.00226768
0.00222379
0.0021811
0.00213975
0.00209986
0.00206137
0.0020238
0.00198696
1.90917e-05
0.000161209
0.000341393
0.000496442
0.000622605
0.000725622
0.000811773
0.000886293
0.000953182
0.00101534
0.00107478
0.00113285
0.0011904
0.00124794
0.00130575
0.00136398
0.00142266
0.00148177
0.00154127
0.00160109
0.00166116
0.00172139
0.00178171
0.00184205
0.00190234
0.00196251
0.00202251
0.00208228
0.00214177
0.00220094
0.00225973
0.00231812
0.00237606
0.00243354
0.00249052
0.00254697
0.00260289
0.00265826
0.00271306
0.00276729
0.00282095
0.00287402
0.00292653
0.00297846
0.00302984
0.00308066
0.00313096
0.00318073
0.00323
0.0032788
0.00332713
0.00337503
0.00342252
0.00346962
0.00351636
0.00356276
0.00360885
0.00365465
0.00370019
0.00374549
0.00379056
0.00383544
0.00388013
0.00392465
0.00396902
0.00401324
0.00405732
0.00410126
0.00414507
0.00418873
0.00423224
0.00427559
0.00431876
0.00436171
0.00440443
0.00444684
0.00448884
0.00453042
0.00457155
0.00461217
0.00465222
0.00469161
0.00473026
0.00476807
0.00480493
0.00484074
0.00487539
0.00490877
0.00494075
0.00497122
0.00500008
0.00502721
0.00505252
0.00507591
0.00509729
0.00511658
0.00513374
0.00514868
0.00516138
0.00517181
0.00517996
0.00518576
0.00518933
0.00519073
0.00519
0.00518719
0.00518235
0.00517554
0.00516684
0.00515631
0.00514402
0.00513004
0.00511444
0.00509728
0.00507862
0.00505851
0.00503702
0.00501417
0.00499002
0.00496459
0.0049379
0.00490998
0.00488083
0.00485046
0.00481888
0.00478607
0.00475204
0.00471677
0.00468024
0.00464246
0.00460342
0.00456309
0.00452149
0.00447862
0.00443448
0.00438911
0.00434239
0.00429448
0.00424554
0.00419564
0.00414487
0.00409325
0.00404084
0.00398768
0.00393381
0.00387928
0.00382417
0.00376852
0.00371239
0.00365582
0.00359885
0.00354152
0.00348389
0.00342608
0.00336814
0.0033101
0.00325197
0.0031938
0.00313579
0.00307793
0.00302013
0.00296254
0.00290542
0.00284868
0.00279245
0.00273686
0.00268196
0.00262784
0.00257461
0.00252235
0.00247116
0.00242112
0.00237234
0.00232493
0.00227899
0.00223467
0.00219209
0.00215126
0.00211173
0.00207329
1.97188e-05
0.000163342
0.00035096
0.000516324
0.000653358
0.00076674
0.000862297
0.000945115
0.0010192
0.00108757
0.00115236
0.00121508
0.00127672
0.00133794
0.00139913
0.0014605
0.00152216
0.00158414
0.00164644
0.001709
0.00177177
0.00183468
0.00189767
0.00196067
0.0020236
0.00208642
0.00214905
0.00221144
0.00227354
0.0023353
0.00239667
0.00245762
0.0025181
0.00257809
0.00263756
0.00269647
0.00275481
0.00281255
0.00286969
0.00292622
0.00298212
0.0030374
0.00309205
0.00314607
0.00319948
0.00325229
0.0033045
0.00335613
0.0034072
0.00345773
0.00350774
0.00355727
0.00360632
0.00365493
0.00370314
0.00375096
0.00379843
0.00384558
0.00389243
0.00393903
0.00398539
0.00403155
0.00407754
0.00412338
0.00416909
0.00421471
0.00426024
0.00430571
0.00435114
0.00439653
0.00444189
0.00448723
0.00453254
0.00457782
0.00462305
0.00466814
0.00471308
0.00475787
0.00480244
0.00484676
0.00489074
0.0049343
0.00497734
0.00501975
0.00506142
0.00510221
0.005142
0.00518065
0.00521802
0.00525398
0.00528838
0.00532109
0.00535198
0.00538092
0.0054078
0.00543252
0.00545497
0.00547508
0.00549279
0.00550802
0.00552076
0.00553095
0.00553857
0.00554374
0.00554647
0.00554681
0.00554479
0.00554049
0.00553395
0.00552523
0.00551441
0.00550154
0.0054867
0.00546994
0.00545132
0.00543091
0.00540875
0.0053849
0.00535938
0.00533225
0.00530352
0.00527323
0.00524139
0.00520801
0.0051731
0.00513667
0.00509872
0.00505924
0.00501824
0.00497571
0.00493165
0.00488607
0.00483897
0.00479036
0.00474025
0.00468869
0.00463561
0.00458122
0.00452567
0.00446906
0.00441145
0.00435291
0.00429349
0.00423324
0.00417221
0.00411048
0.00404814
0.00398526
0.0039219
0.00385812
0.00379396
0.00372946
0.00366465
0.00359975
0.00353481
0.00346986
0.0034049
0.00333986
0.00327521
0.00321088
0.00314688
0.00308334
0.00302042
0.00295813
0.0028966
0.00283593
0.00277619
0.0027175
0.00265993
0.00260359
0.00254856
0.00249494
0.00244283
0.00239233
0.00234356
0.00229666
0.00225175
0.00220884
0.00216751
0.00212749
2.01717e-05
0.000163582
0.000355647
0.000528524
0.000674144
0.000796092
0.000899644
0.000989635
0.00107
0.00114378
0.00121319
0.00127986
0.00134489
0.00140905
0.00147282
0.00153651
0.00160028
0.00166422
0.00172836
0.00179268
0.00185714
0.0019217
0.00198629
0.00205087
0.00211536
0.00217971
0.00224386
0.00230775
0.00237133
0.00243455
0.00249737
0.00255974
0.00262162
0.00268298
0.00274379
0.00280402
0.00286365
0.00292265
0.00298101
0.00303871
0.00309575
0.00315212
0.00320782
0.00326285
0.00331722
0.00337093
0.003424
0.00347644
0.00352828
0.00357952
0.00363021
0.00368036
0.00372999
0.00377916
0.00382787
0.00387618
0.00392411
0.0039717
0.00401899
0.00406602
0.00411283
0.00415946
0.00420595
0.00425233
0.00429865
0.00434494
0.00439125
0.0044376
0.00448403
0.00453057
0.00457725
0.0046241
0.00467112
0.00471834
0.00476573
0.00481331
0.00486107
0.00490899
0.00495704
0.00500514
0.00505323
0.0051012
0.00514895
0.00519634
0.00524326
0.00528955
0.00533505
0.00537961
0.00542305
0.00546522
0.00550593
0.00554502
0.00558231
0.00561766
0.00565091
0.00568192
0.00571057
0.00573674
0.00576034
0.00578127
0.00579947
0.00581489
0.00582746
0.00583724
0.00584425
0.00584853
0.00585011
0.00584904
0.00584538
0.00583919
0.00583052
0.00581943
0.00580599
0.00579027
0.00577232
0.00575221
0.00572998
0.00570569
0.00567939
0.00565111
0.0056209
0.00558878
0.00555477
0.00551891
0.0054812
0.00544166
0.0054003
0.00535712
0.00531213
0.00526533
0.00521674
0.00516637
0.00511422
0.00506031
0.00500467
0.00494733
0.0048883
0.00482782
0.00476604
0.00470306
0.00463897
0.00457385
0.00450776
0.00444075
0.00437288
0.00430424
0.00423497
0.00416514
0.00409484
0.00402412
0.00395305
0.00388166
0.00380988
0.00373813
0.00366644
0.00359485
0.0035234
0.00345216
0.00338137
0.00331107
0.00324132
0.00317225
0.00310396
0.00303656
0.00297013
0.00290479
0.00284062
0.00277774
0.00271622
0.00265617
0.00259767
0.00254082
0.00248571
0.00243245
0.00238115
0.00233195
0.00228494
0.00224014
0.00219714
0.0021556
2.04705e-05
0.000162282
0.000356204
0.000534005
0.000686004
0.000814725
0.000924829
0.00102082
0.00110649
0.00118484
0.00125812
0.00132801
0.00139573
0.0014621
0.00152771
0.00159292
0.00165798
0.001723
0.00178807
0.0018532
0.00191838
0.00198358
0.00204875
0.00211386
0.00217883
0.00224363
0.00230819
0.00237247
0.0024364
0.00249995
0.00256308
0.00262572
0.00268786
0.00274945
0.00281045
0.00287085
0.00293061
0.00298972
0.00304815
0.0031059
0.00316294
0.00321929
0.00327492
0.00332986
0.00338409
0.00343763
0.00349049
0.0035427
0.00359426
0.0036452
0.00369555
0.00374533
0.00379458
0.00384333
0.00389163
0.0039395
0.00398699
0.00403415
0.00408102
0.00412765
0.00417409
0.00422039
0.00426661
0.00431279
0.004359
0.00440528
0.0044517
0.0044983
0.00454514
0.00459228
0.00463977
0.00468764
0.00473595
0.00478474
0.0048341
0.00488403
0.00493454
0.00498561
0.0050372
0.00508925
0.00514166
0.00519435
0.00524717
0.0053
0.00535267
0.00540502
0.00545686
0.00550801
0.00555826
0.00560741
0.00565526
0.00570158
0.00574616
0.00578882
0.00582936
0.0058676
0.00590338
0.00593655
0.00596698
0.00599454
0.00601915
0.00604071
0.00605916
0.00607445
0.00608661
0.00609568
0.00610167
0.00610465
0.00610464
0.00610171
0.00609592
0.00608733
0.00607599
0.00606198
0.00604535
0.00602618
0.0060045
0.0059804
0.00595391
0.00592508
0.00589395
0.00586057
0.00582497
0.00578717
0.0057472
0.00570509
0.00566083
0.00561447
0.005566
0.00551543
0.0054628
0.0054081
0.00535137
0.00529262
0.00523188
0.00516918
0.00510462
0.00503846
0.00497083
0.00490186
0.00483165
0.0047603
0.00468788
0.00461446
0.00454005
0.0044648
0.0043889
0.00431243
0.00423546
0.0041581
0.00408041
0.00400246
0.00392432
0.00384622
0.00376826
0.00369051
0.00361305
0.00353599
0.0034595
0.00338367
0.00330858
0.00323437
0.00316114
0.00308901
0.00301807
0.00294843
0.0028802
0.00281347
0.00274834
0.0026849
0.00262324
0.00256345
0.00250563
0.00244987
0.00239628
0.00234498
0.00229606
0.00224953
0.00220497
0.002162
2.06316e-05
0.000159745
0.000353304
0.000533668
0.00068994
0.000823665
0.000938856
0.00103964
0.00112958
0.00121159
0.00128793
0.00136029
0.00142993
0.00149776
0.00156442
0.00163035
0.00169584
0.00176107
0.00182615
0.00189113
0.00195603
0.00202084
0.00208554
0.00215008
0.00221443
0.00227854
0.00234237
0.00240586
0.00246898
0.00253167
0.00259389
0.00265561
0.00271678
0.00277737
0.00283736
0.0028967
0.00295539
0.00301339
0.00307069
0.00312728
0.00318315
0.00323829
0.0032927
0.00334639
0.00339935
0.00345161
0.00350317
0.00355405
0.00360427
0.00365387
0.00370287
0.00375129
0.00379919
0.00384658
0.00389353
0.00394007
0.00398625
0.00403212
0.00407774
0.00412317
0.00416846
0.00421368
0.0042589
0.00430417