/*--------------------------------*- C++ -*----------------------------------*\
| =========                 |                                                 |
| \\      /  F ield         | OpenFOAM: The Open Source CFD Toolbox           |
|  \\    /   O peration     | Version:  plus                                  |
|   \\  /    A nd           | Website:  www.openfoam.com                      |
|    \\/     M anipulation  |                                                 |
\*---------------------------------------------------------------------------*/
FoamFile
{
    version     2.0;
    format      ascii;
    class       volScalarField;
    location    "100";
    object      p;
}
// * * * * * * * * * * * * * * * * * * * * * * * * * * * * * * * * * * * * * //

dimensions      [0 2 -2 0 0 0 0];


internalField   nonuniform List<scalar> 
12225
(
-3.29811
-5.7235
-6.59426
-6.85261
-7.01359
-7.15638
-7.27605
-7.37576
-7.46337
-7.54401
-7.62015
-7.69322
-7.76442
-7.83479
-7.90514
-7.97565
-8.04274
-8.04804
-6.67361
-7.10783
-7.31089
-7.30011
-7.30687
-7.35394
-7.41331
-7.47369
-7.53462
-7.59664
-7.65949
-7.7229
-7.78694
-7.85191
-7.91822
-7.98642
-8.06116
-8.18486
-6.77575
-6.64318
-6.83745
-6.95376
-7.05216
-7.16182
-7.26757
-7.36257
-7.44911
-7.5301
-7.60713
-7.68124
-7.75337
-7.8245
-7.89565
-7.96854
-8.04903
-8.15768
-6.64857
-6.60213
-6.86363
-7.03714
-7.14888
-7.25165
-7.3464
-7.43034
-7.50648
-7.57813
-7.64704
-7.71418
-7.78035
-7.84635
-7.91312
-7.98229
-8.05778
-8.14685
-6.66947
-6.69967
-6.92068
-7.07128
-7.16574
-7.2537
-7.33911
-7.41816
-7.49197
-7.56266
-7.63141
-7.69879
-7.76533
-7.83164
-7.89849
-7.9671
-8.03949
-8.11691
-6.73374
-6.77648
-6.94522
-7.07735
-7.1691
-7.25531
-7.33995
-7.41934
-7.49376
-7.56486
-7.63371
-7.70087
-7.76687
-7.83227
-7.89771
-7.96397
-8.03175
-8.10009
-6.79144
-6.83062
-6.96457
-7.08603
-7.17805
-7.26301
-7.34562
-7.42351
-7.49676
-7.56673
-7.63439
-7.7003
-7.76494
-7.82875
-7.89217
-7.95552
-8.01871
-8.07995
-6.84297
-6.87881
-6.98881
-7.09955
-7.18923
-7.2714
-7.351
-7.42675
-7.49849
-7.5672
-7.63367
-7.69839
-7.76171
-7.82394
-7.88529
-7.94576
-8.00486
-8.06074
-6.89173
-6.9246
-7.01582
-7.11502
-7.20057
-7.27949
-7.35606
-7.42959
-7.49973
-7.56709
-7.63227
-7.69566
-7.75749
-7.81794
-7.87705
-7.93462
-7.99001
-8.0416
-6.93802
-6.96755
-7.04367
-7.13173
-7.21234
-7.28787
-7.36137
-7.43249
-7.5008
-7.56658
-7.63025
-7.69209
-7.75224
-7.81074
-7.86751
-7.92227
-7.97437
-8.02252
-6.9815
-7.00753
-7.07161
-7.14953
-7.22477
-7.29666
-7.36698
-7.43549
-7.50172
-7.56571
-7.62769
-7.68781
-7.74611
-7.80256
-7.85699
-7.9091
-7.9583
-8.00361
-7.01867
-7.04165
-7.09689
-7.16649
-7.2366
-7.30495
-7.37226
-7.43825
-7.50241
-7.56459
-7.62486
-7.68327
-7.73978
-7.7943
-7.84662
-7.89645
-7.94331
-7.98639
-7.05284
-7.07317
-7.12114
-7.1834
-7.24848
-7.31323
-7.37752
-7.44095
-7.50295
-7.56323
-7.62171
-7.67834
-7.73302
-7.78561
-7.83591
-7.88364
-7.92839
-7.96962
-7.08835
-7.10611
-7.1473
-7.20232
-7.26192
-7.32256
-7.38342
-7.44389
-7.50333
-7.56134
-7.61769
-7.67222
-7.7248
-7.77524
-7.82333
-7.86885
-7.91149
-7.95091
-7.1238
-7.1391
-7.17425
-7.22242
-7.27635
-7.3325
-7.38956
-7.44671
-7.50323
-7.55861
-7.61248
-7.66463
-7.71484
-7.76293
-7.80869
-7.85195
-7.8925
-7.93016
-7.15699
-7.17009
-7.2001
-7.24216
-7.29058
-7.34212
-7.39518
-7.44879
-7.50213
-7.5546
-7.60575
-7.65529
-7.70296
-7.74858
-7.79197
-7.833
-7.87152
-7.90747
-7.18475
-7.19606
-7.222
-7.25898
-7.30251
-7.3497
-7.3989
-7.44899
-7.4991
-7.54858
-7.59691
-7.64376
-7.68886
-7.73201
-7.77308
-7.81195
-7.84854
-7.88284
-7.20237
-7.21242
-7.23554
-7.26888
-7.30871
-7.35244
-7.39841
-7.44547
-7.49271
-7.53945
-7.58518
-7.62954
-7.67225
-7.71313
-7.75206
-7.78897
-7.8238
-7.85658
-7.2025
-7.212
-7.23394
-7.26572
-7.30387
-7.34586
-7.39003
-7.43523
-7.48057
-7.52541
-7.56922
-7.61167
-7.65251
-7.69158
-7.72879
-7.76408
-7.79741
-7.82886
-7.17946
-7.18948
-7.21265
-7.24609
-7.28581
-7.32893
-7.37376
-7.41923
-7.46456
-7.50914
-7.5525
-7.59434
-7.63444
-7.6727
-7.70903
-7.74341
-7.77583
-7.80637
-7.14686
-7.15779
-7.18354
-7.22064
-7.26387
-7.30967
-7.35644
-7.40336
-7.44974
-7.495
-7.53875
-7.58075
-7.62087
-7.65902
-7.69515
-7.72927
-7.7614
-7.79165
-7.10653
-7.11841
-7.14814
-7.19126
-7.23973
-7.28914
-7.33856
-7.38763
-7.43571
-7.48221
-7.52683
-7.5694
-7.60986
-7.64816
-7.68429
-7.71827
-7.75012
-7.77994
-7.06146
-7.07323
-7.10841
-7.16044
-7.2157
-7.26921
-7.32158
-7.37307
-7.42303
-7.47097
-7.51669
-7.56014
-7.6013
-7.64014
-7.67669
-7.71098
-7.74307
-7.77312
-7.01431
-7.02355
-7.06643
-7.12997
-7.19222
-7.24994
-7.30598
-7.36044
-7.41241
-7.46162
-7.50816
-7.55213
-7.59357
-7.63251
-7.66902
-7.70312
-7.73481
-7.76406
-6.96606
-6.96848
-7.02778
-7.10575
-7.17122
-7.23044
-7.2897
-7.34772
-7.40268
-7.45437
-7.50306
-7.54887
-7.59186
-7.63206
-7.66957
-7.70444
-7.73672
-7.76666
-6.91652
-6.89004
-6.98851
-7.09404
-7.16248
-7.21935
-7.27681
-7.33302
-7.38617
-7.43645
-7.48428
-7.52971
-7.5727
-7.61319
-7.65119
-7.68662
-7.71925
-7.74837
-6.90594
-6.76836
-6.90827
-7.05793
-7.15267
-7.22939
-7.30038
-7.36406
-7.42068
-7.47213
-7.51972
-7.56406
-7.60548
-7.64421
-7.68043
-7.71421
-7.74544
-7.77397
-7.05177
-6.75078
-6.81798
-6.90643
-6.98207
-7.06744
-7.15439
-7.23434
-7.30649
-7.37235
-7.43289
-7.48859
-7.5399
-7.58725
-7.63106
-7.67161
-7.70887
-7.74148
-7.08478
-7.30783
-7.42607
-7.37538
-7.3382
-7.34685
-7.3758
-7.41027
-7.44719
-7.4859
-7.52532
-7.56444
-7.60262
-7.63957
-7.67518
-7.70946
-7.74261
-7.77504
-3.65992
-5.7829
-6.6183
-6.85012
-6.97567
-7.0918
-7.1918
-7.27418
-7.34464
-7.4075
-7.46465
-7.51694
-7.56506
-7.60962
-7.65115
-7.69021
-7.72774
-7.76676
-8.78876
-8.78972
-8.79247
-8.79573
-8.79888
-8.80227
-8.80694
-8.81344
-8.82164
-8.83158
-8.84333
-8.85691
-8.87233
-8.88955
-8.90851
-8.92906
-8.95106
-8.97433
-8.99873
-9.02413
-9.05036
-9.07729
-9.10477
-9.13266
-9.16082
-9.18911
-9.21742
-9.24562
-9.2736
-9.30125
-9.32847
-9.35517
-9.38125
-9.40664
-9.43124
-9.45498
-9.47778
-9.49957
-9.52028
-9.53982
-9.55812
-9.57511
-9.5907
-9.60483
-9.61739
-9.6283
-9.63747
-9.6448
-9.65019
-9.65352
-9.65468
-9.65355
-9.65
-9.64391
-9.63514
-9.62354
-9.60897
-9.59129
-9.57036
-9.54602
-9.51812
-9.48654
-9.45113
-9.41176
-9.36832
-9.32071
-9.26882
-9.21258
-9.15195
-9.08689
-9.01738
-8.94346
-8.86516
-8.78257
-8.69579
-8.60496
-8.51027
-8.41193
-8.31016
-8.20528
-8.09758
-7.98746
-7.87528
-7.76148
-7.6465
-7.5308
-7.41486
-7.29915
-7.18417
-7.0704
-6.95831
-6.84838
-6.74105
-6.63675
-6.53588
-6.4388
-6.34585
-6.25733
-6.17349
-6.09457
-6.02076
-5.95221
-5.88903
-5.83131
-5.77907
-5.73232
-5.69099
-5.655
-5.6242
-5.59841
-5.57738
-5.5608
-5.54833
-5.53952
-5.5339
-5.5309
-5.52988
-5.53013
-5.53089
-5.53131
-5.53049
-5.52747
-5.52127
-5.51086
-5.49517
-5.47312
-5.4436
-5.4055
-5.35764
-5.29888
-5.22801
-5.14381
-5.04507
-4.93062
-4.79936
-4.6503
-4.48256
-4.29543
-4.0883
-3.86072
-3.61239
-3.34309
-3.05279
-2.74157
-2.40971
-2.05767
-1.68604
-1.29559
-0.887241
-0.462055
-0.0212368
0.433851
0.901727
1.38082
1.86947
2.36594
2.86843
3.37512
3.88416
4.39367
4.90182
5.4068
5.90681
6.40012
6.88507
7.36005
7.82359
8.2743
8.71094
9.13238
9.53766
9.92596
10.2966
10.649
10.9829
11.2979
11.5941
11.8723
12.1342
12.3723
-8.78153
-8.78424
-8.78779
-8.79002
-8.79077
-8.7911
-8.79242
-8.79579
-8.80138
-8.80912
-8.81895
-8.83084
-8.84475
-8.8606
-8.8783
-8.89772
-8.91871
-8.9411
-8.96474
-8.98947
-9.01512
-9.04156
-9.06862
-9.09615
-9.12401
-9.15208
-9.1802
-9.20827
-9.23616
-9.26376
-9.29096
-9.31768
-9.34382
-9.36929
-9.394
-9.41788
-9.44084
-9.46282
-9.48374
-9.50352
-9.52209
-9.53938
-9.5553
-9.56978
-9.58274
-9.59409
-9.60374
-9.61159
-9.61754
-9.62149
-9.62332
-9.62292
-9.62016
-9.61492
-9.60705
-9.59643
-9.58291
-9.56634
-9.54659
-9.52349
-9.49691
-9.4667
-9.43272
-9.39485
-9.35294
-9.30691
-9.25663
-9.20204
-9.14306
-9.07966
-9.0118
-8.9395
-8.86279
-8.78173
-8.69641
-8.60696
-8.51353
-8.41631
-8.31553
-8.21145
-8.10439
-7.99469
-7.88275
-7.76898
-7.6538
-7.53767
-7.42107
-7.30448
-7.18838
-7.07328
-6.95964
-6.84797
-6.73871
-6.63231
-6.52919
-6.42974
-6.33431
-6.24323
-6.15678
-6.07521
-5.99874
-5.92754
-5.86177
-5.80153
-5.74687
-5.69781
-5.65432
-5.61633
-5.58372
-5.5563
-5.53386
-5.51611
-5.50269
-5.4932
-5.48715
-5.48399
-5.48309
-5.48375
-5.4852
-5.48658
-5.487
-5.48551
-5.48109
-5.47272
-5.45932
-5.4398
-5.41305
-5.37792
-5.33327
-5.2779
-5.2106
-5.13015
-5.03531
-4.92488
-4.79772
-4.65281
-4.48927
-4.30636
-4.1035
-3.8802
-3.63612
-3.37105
-3.08493
-2.77782
-2.44997
-2.10181
-1.73391
-1.34702
-0.942024
-0.519984
-0.0820788
0.370356
0.835852
1.31284
1.79967
2.2946
2.79585
3.30157
3.8099
4.31897
4.82691
5.3319
5.83213
6.32585
6.81139
7.28716
7.75166
8.20351
8.64148
9.06446
9.4715
9.86177
10.2346
10.5894
10.9259
11.2437
11.5429
11.8245
12.0924
12.3275
-8.76135
-8.76809
-8.77644
-8.78037
-8.78132
-8.78169
-8.78288
-8.78573
-8.79052
-8.79735
-8.80621
-8.81707
-8.82989
-8.84458
-8.86107
-8.87924
-8.89896
-8.92009
-8.94248
-8.966
-8.99048
-9.01579
-9.04177
-9.06829
-9.09519
-9.12235
-9.14964
-9.17693
-9.20411
-9.23106
-9.25768
-9.28387
-9.30954
-9.33459
-9.35894
-9.38252
-9.40523
-9.42702
-9.44779
-9.46748
-9.48601
-9.50331
-9.51929
-9.53389
-9.54702
-9.5586
-9.56853
-9.57673
-9.58309
-9.58751
-9.58988
-9.59008
-9.588
-9.5835
-9.57646
-9.56674
-9.55419
-9.53867
-9.52004
-9.49814
-9.47284
-9.44397
-9.4114
-9.375
-9.33463
-9.29017
-9.24151
-9.18857
-9.13126
-9.06954
-9.00336
-8.93272
-8.85763
-8.77814
-8.69432
-8.60629
-8.51416
-8.41811
-8.31834
-8.21511
-8.10871
-7.99948
-7.88779
-7.77405
-7.65867
-7.5421
-7.42482
-7.3073
-7.19004
-7.07353
-6.95826
-6.84474
-6.73344
-6.62481
-6.51931
-6.41734
-6.31929
-6.22551
-6.13632
-6.05197
-5.97273
-5.89881
-5.83039
-5.76758
-5.71049
-5.65916
-5.61358
-5.5737
-5.53942
-5.51059
-5.48699
-5.46835
-5.45434
-5.44455
-5.43852
-5.43569
-5.43545
-5.4371
-5.43987
-5.4429
-5.4453
-5.44608
-5.44424
-5.43872
-5.42844
-5.41229
-5.38913
-5.35781
-5.31718
-5.26602
-5.20311
-5.12719
-5.037
-4.93129
-4.80889
-4.66873
-4.50992
-4.33174
-4.13357
-3.91494
-3.67547
-3.41494
-3.13325
-2.83047
-2.50681
-2.16269
-1.79866
-1.41543
-1.01389
-0.59509
-0.160181
0.289518
0.752548
1.22735
1.71226
2.20556
2.70544
3.21005
3.71752
4.22595
4.73349
5.23826
5.73847
6.23236
6.71825
7.19456
7.65978
8.11259
8.55177
8.97623
9.38508
9.77752
10.1529
10.5106
10.8502
11.1716
11.4749
11.7611
12.035
12.2645
-8.73575
-8.74638
-8.76107
-8.76958
-8.77373
-8.77657
-8.77953
-8.78341
-8.78868
-8.79563
-8.80436
-8.81491
-8.82726
-8.84136
-8.85713
-8.87449
-8.89332
-8.9135
-8.93492
-8.95743
-8.98091
-9.00521
-9.03019
-9.05573
-9.08169
-9.10795
-9.13437
-9.16083
-9.18724
-9.21347
-9.23942
-9.26499
-9.2901
-9.31465
-9.33855
-9.36173
-9.38411
-9.40561
-9.42616
-9.44568
-9.46409
-9.48133
-9.49731
-9.51196
-9.5252
-9.53694
-9.54709
-9.55556
-9.56224
-9.56705
-9.56986
-9.57057
-9.56904
-9.56516
-9.55878
-9.54978
-9.53801
-9.52332
-9.50557
-9.48459
-9.46025
-9.43238
-9.40085
-9.3655
-9.32621
-9.28284
-9.23529
-9.18344
-9.12722
-9.06656
-9.00141
-8.93175
-8.85759
-8.77896
-8.69592
-8.60856
-8.517
-8.42138
-8.32191
-8.21882
-8.11241
-8.00301
-7.89098
-7.77673
-7.66067
-7.54326
-7.42496
-7.30626
-7.18764
-7.06962
-6.9527
-6.83738
-6.72416
-6.61351
-6.50591
-6.40177
-6.30152
-6.20553
-6.11413
-6.02762
-5.94625
-5.87029
-5.7999
-5.73526
-5.67648
-5.62361
-5.57667
-5.53563
-5.50039
-5.47083
-5.44673
-5.42784
-5.41383
-5.4043
-5.3988
-5.39677
-5.3976
-5.4006
-5.40499
-5.40993
-5.41449
-5.4177
-5.41851
-5.41587
-5.40866
-5.39577
-5.37603
-5.34829
-5.31135
-5.26402
-5.20504
-5.13314
-5.04699
-4.94534
-4.82694
-4.69071
-4.53577
-4.36139
-4.16697
-3.952
-3.71609
-3.45902
-3.18067
-2.8811
-2.56051
-2.2193
-1.85801
-1.47734
-1.07819
-0.661576
-0.228651
0.219271
0.680739
1.15418
1.63794
2.13029
2.62941
3.13345
3.6405
4.14867
4.65608
5.16085
5.66117
6.15531
6.64156
7.11836
7.58425
8.03791
8.47818
8.90398
9.31446
9.70875
10.0861
10.4461
10.7882
11.1123
11.4184
11.7071
11.9831
12.2077
-8.71311
-8.72674
-8.74674
-8.76008
-8.76802
-8.7739
-8.77927
-8.78494
-8.79151
-8.79935
-8.80865
-8.81952
-8.83198
-8.846
-8.86154
-8.87852
-8.89685
-8.91644
-8.93718
-8.95894
-8.98162
-9.0051
-9.02923
-9.05392
-9.07903
-9.10444
-9.13004
-9.15571
-9.18136
-9.20688
-9.23216
-9.25711
-9.28165
-9.30568
-9.32913
-9.35191
-9.37395
-9.39517
-9.41549
-9.43485
-9.45316
-9.47035
-9.48634
-9.50106
-9.51443
-9.52634
-9.53673
-9.54549
-9.55252
-9.55771
-9.56096
-9.56214
-9.56114
-9.55782
-9.55204
-9.54366
-9.53254
-9.51853
-9.50146
-9.48118
-9.45754
-9.43037
-9.39952
-9.36485
-9.3262
-9.28344
-9.23645
-9.18511
-9.12934
-9.06906
-9.00421
-8.93477
-8.86074
-8.78212
-8.69898
-8.61139
-8.51946
-8.42334
-8.32321
-8.21934
-8.11201
-8.00158
-7.8884
-7.77288
-7.65544
-7.53655
-7.41669
-7.29634
-7.17602
-7.05623
-6.93749
-6.82032
-6.70524
-6.59274
-6.48331
-6.37739
-6.27542
-6.17781
-6.0849
-5.997
-5.91439
-5.83731
-5.76598
-5.70056
-5.64117
-5.58788
-5.54073
-5.49967
-5.46464
-5.43549
-5.41203
-5.39398
-5.38104
-5.37279
-5.36878
-5.36847
-5.37122
-5.37634
-5.38306
-5.39052
-5.39779
-5.40388
-5.40774
-5.40828
-5.40436
-5.39484
-5.37856
-5.35433
-5.32096
-5.27721
-5.22184
-5.15354
-5.07096
-4.97276
-4.85771
-4.7247
-4.57286
-4.40147
-4.20992
-3.99769
-3.7644
-3.50979
-3.23376
-2.93634
-2.61774
-2.27832
-1.91865
-1.53943
-1.14154
-0.726008
-0.293983
0.153228
0.614164
1.08724
1.57078
2.06306
2.56227
3.06651
3.57387
4.08245
4.59038
5.09573
5.59671
6.09163
6.57877
7.05657
7.5236
7.97854
8.42028
8.84765
9.25974
9.65572
10.0349
10.3967
10.7407
11.0666
11.3745
11.6642
11.9399
12.1597
-8.69901
-8.71463
-8.73789
-8.75493
-8.7662
-8.7749
-8.78262
-8.79022
-8.79829
-8.80727
-8.81741
-8.82886
-8.84167
-8.85585
-8.87138
-8.88819
-8.90623
-8.92541
-8.94564
-8.96682
-8.98885
-9.01162
-9.03502
-9.05895
-9.08328
-9.10793
-9.13277
-9.15771
-9.18265
-9.20748
-9.23213
-9.2565
-9.2805
-9.30405
-9.32707
-9.34948
-9.37121
-9.39218
-9.41231
-9.43155
-9.4498
-9.46699
-9.48305
-9.49789
-9.51144
-9.52359
-9.53427
-9.54337
-9.55078
-9.55641
-9.56013
-9.56182
-9.56135
-9.55859
-9.55339
-9.5456
-9.53508
-9.52165
-9.50516
-9.48545
-9.46234
-9.43566
-9.40526
-9.37097
-9.33264
-9.29013
-9.24329
-9.19201
-9.1362
-9.07575
-9.01062
-8.94076
-8.86617
-8.78685
-8.70286
-8.61425
-8.52113
-8.42365
-8.32201
-8.2165
-8.10743
-7.99513
-7.88
-7.76246
-7.64293
-7.52191
-7.39987
-7.27734
-7.15484
-7.03289
-6.91204
-6.79282
-6.67574
-6.56135
-6.45015
-6.34261
-6.23918
-6.14029
-6.04631
-5.95757
-5.87434
-5.79686
-5.72536
-5.66
-5.6009
-5.54815
-5.50177
-5.46172
-5.42793
-5.40024
-5.37847
-5.36233
-5.3515
-5.34556
-5.34405
-5.3464
-5.352
-5.36012
-5.36999
-5.38073
-5.3914
-5.40101
-5.40847
-5.41267
-5.41246
-5.40667
-5.39412
-5.37361
-5.34392
-5.30381
-5.252
-5.18718
-5.10797
-5.01298
-4.90095
-4.77079
-4.62165
-4.45282
-4.26368
-4.05369
-3.82246
-3.56975
-3.29543
-2.99953
-2.68225
-2.34396
-1.98521
-1.60673
-1.2094
-0.794245
-0.36242
0.0847768
0.54587
1.01924
1.5032
1.99602
2.49591
3.00093
3.50913
4.01866
4.52764
5.03412
5.5363
6.03257
6.52116
7.0005
7.46921
7.92588
8.36934
8.79849
9.21237
9.61015
9.9911
10.3547
10.7004
11.0278
11.3369
11.6271
11.9017
12.1172
-8.69592
-8.71217
-8.73662
-8.75582
-8.76943
-8.78028
-8.78991
-8.79913
-8.80855
-8.81861
-8.82957
-8.84162
-8.85483
-8.86923
-8.88482
-8.90156
-8.9194
-8.93827
-8.9581
-8.9788
-9.00028
-9.02245
-9.04521
-9.06847
-9.09213
-9.11609
-9.14025
-9.16453
-9.18883
-9.21306
-9.23715
-9.26099
-9.28452
-9.30765
-9.33031
-9.35242
-9.37391
-9.3947
-9.41473
-9.43391
-9.45218
-9.46946
-9.48566
-9.50071
-9.51451
-9.52699
-9.53803
-9.54755
-9.55543
-9.56155
-9.5658
-9.56805
-9.56816
-9.56599
-9.56138
-9.55419
-9.54424
-9.53136
-9.51539
-9.49614
-9.47345
-9.44712
-9.41698
-9.38287
-9.34461
-9.30205
-9.25505
-9.20347
-9.1472
-9.08615
-9.02026
-8.94946
-8.87376
-8.79314
-8.70766
-8.61736
-8.52234
-8.42277
-8.31889
-8.21102
-8.09948
-7.98462
-7.86687
-7.74664
-7.62442
-7.50068
-7.37593
-7.25072
-7.1256
-7.00113
-6.87786
-6.75634
-6.63711
-6.52072
-6.40772
-6.29861
-6.19383
-6.09384
-5.99907
-5.90984
-5.82641
-5.74905
-5.67794
-5.61326
-5.55513
-5.50362
-5.45876
-5.42049
-5.38875
-5.36336
-5.34411
-5.33072
-5.32284
-5.32005
-5.32186
-5.32769
-5.33691
-5.34878
-5.3625
-5.37719
-5.39189
-5.40557
-5.41716
-5.42549
-5.42941
-5.42771
-5.41919
-5.40263
-5.37682
-5.34046
-5.29227
-5.23091
-5.15499
-5.06309
-4.95389
-4.82636
-4.6797
-4.51318
-4.32615
-4.11808
-3.88859
-3.63741
-3.36443
-3.06966
-2.75329
-2.41568
-2.05741
-1.67922
-1.282
-0.866786
-0.434721
0.0128998
0.474577
0.948651
1.43341
1.92716
2.42811
2.93428
3.4437
3.95453
4.46495
4.97296
5.47673
5.97472
6.46514
6.94631
7.41688
7.87548
8.32088
8.75198
9.16779
9.56748
9.95029
10.3156
10.663
10.9918
11.3019
11.5923
11.8657
12.0777
-8.70281
-8.71866
-8.74268
-8.76262
-8.77751
-8.78973
-8.80065
-8.81105
-8.82148
-8.83236
-8.84397
-8.85649
-8.87001
-8.88457
-8.9002
-8.91685
-8.9345
-8.95309
-8.97256
-8.99283
-9.01382
-9.03547
-9.05767
-9.08034
-9.10341
-9.12677
-9.15035
-9.17407
-9.19782
-9.22155
-9.24516
-9.26859
-9.29174
-9.31456
-9.33696
-9.35887
-9.38023
-9.40096
-9.42098
-9.44023
-9.45862
-9.47609
-9.49255
-9.50791
-9.52209
-9.53499
-9.54651
-9.55654
-9.56498
-9.5717
-9.57656
-9.57944
-9.5802
-9.57867
-9.57469
-9.56811
-9.55873
-9.54639
-9.5309
-9.51206
-9.48969
-9.46359
-9.43358
-9.39946
-9.36106
-9.31822
-9.27076
-9.21857
-9.1615
-9.09946
-9.03238
-8.96019
-8.88288
-8.80044
-8.71289
-8.62027
-8.5227
-8.4204
-8.31366
-8.2028
-8.08817
-7.97017
-7.84921
-7.72575
-7.60029
-7.47335
-7.34546
-7.21718
-7.08909
-6.96177
-6.83583
-6.71183
-6.59034
-6.47191
-6.35709
-6.24645
-6.14046
-6.03955
-5.94419
-5.85476
-5.7715
-5.69466
-5.62442
-5.56094
-5.50433
-5.45466
-5.41193
-5.37609
-5.34705
-5.32462
-5.30857
-5.29862
-5.29438
-5.29542
-5.30121
-5.31118
-5.32465
-5.34088
-5.35904
-5.37823
-5.39746
-5.4157
-5.43184
-5.44471
-5.4531
-5.45581
-5.45158
-5.4392
-5.41742
-5.38495
-5.34045
-5.28256
-5.20987
-5.12097
-5.0145
-4.88947
-4.74512
-4.5807
-4.39557
-4.1892
-3.96119
-3.71127
-3.43933
-3.14539
-2.8296
-2.49235
-2.13423
-1.756
-1.35856
-0.942966
-0.510351
-0.0619937
0.40058
0.875656
1.3615
1.85644
2.35873
2.86635
3.37727
3.88967
4.4018
4.91163
5.41724
5.91709
6.40944
6.89262
7.36522
7.82586
8.27331
8.70645
9.12428
9.52593
9.91062
10.2777
10.6266
10.9568
11.2677
11.5581
11.8303
12.0397
-8.71775
-8.73243
-8.75483
-8.77432
-8.78954
-8.80234
-8.81394
-8.82501
-8.83604
-8.84742
-8.85942
-8.8722
-8.88587
-8.90048
-8.91604
-8.93255
-8.94997
-8.96827
-8.98738
-9.00724
-9.0278
-9.04896
-9.07067
-9.09284
-9.1154
-9.13827
-9.16136
-9.18462
-9.20795
-9.23129
-9.25455
-9.27768
-9.30059
-9.32322
-9.34549
-9.36734
-9.3887
-9.4095
-9.42965
-9.4491
-9.46777
-9.48556
-9.50241
-9.51822
-9.53291
-9.54636
-9.55848
-9.56915
-9.57826
-9.58567
-9.59125
-9.59486
-9.59633
-9.59551
-9.59221
-9.58627
-9.5775
-9.56569
-9.55064
-9.53217
-9.51004
-9.48407
-9.45404
-9.41976
-9.38103
-9.33767
-9.28951
-9.2364
-9.1782
-9.11481
-9.04614
-8.97212
-8.89273
-8.80793
-8.71773
-8.62218
-8.52147
-8.41586
-8.30568
-8.19128
-8.07302
-7.95133
-7.82664
-7.69946
-7.57031
-7.43973
-7.30831
-7.17664
-7.04532
-6.91495
-6.78615
-6.65953
-6.53571
-6.41525
-6.29869
-6.18661
-6.07954
-5.97794
-5.88223
-5.79286
-5.71013
-5.63421
-5.56529
-5.50349
-5.44892
-5.40161
-5.36157
-5.32872
-5.30295
-5.28406
-5.27181
-5.26587
-5.26585
-5.27128
-5.28163
-5.29627
-5.31453
-5.33562
-5.35869
-5.38284
-5.40703
-5.43022
-5.45126
-5.46898
-5.48215
-5.48952
-5.48982
-5.48179
-5.46418
-5.4357
-5.39497
-5.34057
-5.27107
-5.18508
-5.08125
-4.95862
-4.81645
-4.65399
-4.47059
-4.26572
-4.03897
-3.7901
-3.51898
-3.22563
-2.91019
-2.57304
-2.21482
-1.83631
-1.43842
-1.02223
-0.588851
-0.139545
0.324139
0.800434
1.28758
1.78392
2.28774
2.79702
3.30967
3.82386
4.33782
4.84957
5.35722
5.85911
6.35353
6.83883
7.31356
7.77635
8.22592
8.66115
9.08102
9.48463
9.87118
10.24
10.5904
10.9217
11.2333
11.5237
11.7947
12.0023
-8.73847
-8.75146
-8.77137
-8.78948
-8.8042
-8.81689
-8.82858
-8.83982
-8.85105
-8.86261
-8.87471
-8.88754
-8.90118
-8.91568
-8.93108
-8.94735
-8.96449
-8.98246
-9.0012
-9.02067
-9.04081
-9.06155
-9.08283
-9.10457
-9.12672
-9.14919
-9.17192
-9.19484
-9.21787
-9.24095
-9.26401
-9.28699
-9.30981
-9.3324
-9.3547
-9.37665
-9.39817
-9.41919
-9.43964
-9.45945
-9.47853
-9.49682
-9.51421
-9.53062
-9.54595
-9.56011
-9.57296
-9.58441
-9.59431
-9.60254
-9.60894
-9.61336
-9.61564
-9.61559
-9.61304
-9.60778
-9.59962
-9.58834
-9.57373
-9.55557
-9.53362
-9.50768
-9.47751
-9.4429
-9.40365
-9.35955
-9.31042
-9.25611
-9.19646
-9.13135
-9.06069
-8.98441
-8.90243
-8.81473
-8.72128
-8.62221
-8.5178
-8.40836
-8.29422
-8.17576
-8.05336
-7.92748
-7.79861
-7.66728
-7.53403
-7.39946
-7.26418
-7.12882
-6.99405
-6.86048
-6.72874
-6.59946
-6.47328
-6.35083
-6.23266
-6.11931
-6.01136
-5.90929
-5.81353
-5.72452
-5.64262
-5.56802
-5.50085
-5.4412
-5.38915
-5.34471
-5.30787
-5.27854
-5.25656
-5.24174
-5.23379
-5.23238
-5.23707
-5.24739
-5.26275
-5.28253
-5.30601
-5.33237
-5.36076
-5.39021
-5.41971
-5.44815
-5.47437
-5.49718
-5.51534
-5.52756
-5.53255
-5.52901
-5.51566
-5.49121
-5.45428
-5.40338
-5.33705
-5.25386
-5.15258
-5.03226
-4.89216
-4.73153
-4.54973
-4.34622
-4.1206
-3.87262
-3.60217
-3.30927
-2.99403
-2.65685
-2.29841
-1.91949
-1.52103
-1.10411
-0.669861
-0.219517
0.245382
0.723031
1.21164
1.70953
2.21498
2.72601
3.24056
3.75674
4.27272
4.78656
5.29637
5.80043
6.29704
6.78456
7.2615
7.72648
8.17821
8.61555
9.03745
9.44299
9.83135
10.2018
10.5535
10.8859
11.198
11.4883
11.7584
11.965
-8.76259
-8.77353
-8.79041
-8.80643
-8.81998
-8.83199
-8.84326
-8.85425
-8.86531
-8.87672
-8.88869
-8.90134
-8.91477
-8.92903
-8.94415
-8.96011
-8.97691
-8.99452
-9.01289
-9.03198
-9.05174
-9.0721
-9.09302
-9.11443
-9.13626
-9.15845
-9.18094
-9.20365
-9.22653
-9.24951
-9.27253
-9.29551
-9.3184
-9.34113
-9.36364
-9.38585
-9.4077
-9.42913
-9.45004
-9.47038
-9.49006
-9.50899
-9.52709
-9.54426
-9.56039
-9.57539
-9.58912
-9.60147
-9.61229
-9.62145
-9.62878
-9.63411
-9.63727
-9.63807
-9.63631
-9.63177
-9.62424
-9.61349
-9.59927
-9.58137
-9.55952
-9.5335
-9.50305
-9.46795
-9.42797
-9.3829
-9.33255
-9.27674
-9.2153
-9.14812
-9.07507
-8.99604
-8.91096
-8.81973
-8.72244
-8.61934
-8.51075
-8.39698
-8.27841
-8.15542
-8.02844
-7.89795
-7.76449
-7.62862
-7.49094
-7.35209
-7.21271
-7.07347
-6.93506
-6.79816
-6.66344
-6.53153
-6.40308
-6.27873
-6.1591
-6.04473
-5.93613
-5.83386
-5.73838
-5.65006
-5.56932
-5.49641
-5.4314
-5.37436
-5.3253
-5.28422
-5.25106
-5.22572
-5.20802
-5.19773
-5.19455
-5.1981
-5.20794
-5.22355
-5.24433
-5.26961
-5.29864
-5.33061
-5.36459
-5.39963
-5.43466
-5.46857
-5.50017
-5.52823
-5.55149
-5.56867
-5.57843
-5.57946
-5.57042
-5.55
-5.51683
-5.46941
-5.40621
-5.32576
-5.22694
-5.10887
-4.97078
-4.81192
-4.63165
-4.42943
-4.20487
-3.95773
-3.6879
-3.39541
-3.08038
-2.74317
-2.38447
-2.00512
-1.60604
-1.18832
-0.753131
-0.301726
0.164398
0.64348
1.13371
1.63334
2.1406
2.65353
3.17011
3.68841
4.20653
4.72257
5.23463
5.74095
6.23982
6.7296
7.20878
7.67596
8.12986
8.56929
8.99319
9.40062
9.7907
10.1627
10.5157
10.849
11.1616
11.4518
11.7208
11.9271
-8.78782
-8.79653
-8.81007
-8.82353
-8.83542
-8.84629
-8.85672
-8.8671
-8.87768
-8.88869
-8.90028
-8.91257
-8.92565
-8.93954
-8.95428
-8.96986
-8.98628
-9.00351
-9.02152
-9.04025
-9.05968
-9.07974
-9.10038
-9.12155
-9.14318
-9.16522
-9.1876
-9.21026
-9.23315
-9.25619
-9.27933
-9.3025
-9.32564
-9.34869
-9.37158
-9.39424
-9.4166
-9.4386
-9.46016
-9.4812
-9.50164
-9.52138
-9.54035
-9.55842
-9.57551
-9.59148
-9.60622
-9.61959
-9.63145
-9.64163
-9.64997
-9.65629
-9.6604
-9.66209
-9.66115
-9.65734
-9.65043
-9.64017
-9.62631
-9.60859
-9.58674
-9.56051
-9.52963
-9.49385
-9.45294
-9.40666
-9.35481
-9.2972
-9.23364
-9.16399
-9.0881
-9.00582
-8.91698
-8.82162
-8.72002
-8.61247
-8.49928
-8.38078
-8.25735
-8.1294
-7.99743
-7.86196
-7.72355
-7.58283
-7.44043
-7.29704
-7.15337
-7.01013
-6.86804
-6.72779
-6.59005
-6.45553
-6.32492
-6.19884
-6.07791
-5.96272
-5.85381
-5.75164
-5.65673
-5.56949
-5.49024
-5.41934
-5.3569
-5.3029
-5.25729
-5.22003
-5.19103
-5.17014
-5.15718
-5.15186
-5.15386
-5.16279
-5.17815
-5.19941
-5.22594
-5.25703
-5.29191
-5.32972
-5.36955
-5.41037
-5.45111
-5.49064
-5.52774
-5.56115
-5.5896
-5.61178
-5.62636
-5.63198
-5.62729
-5.6109
-5.58145
-5.53747
-5.47738
-5.3997
-5.30334
-5.18752
-5.05144
-4.89436
-4.71563
-4.51471
-4.29121
-4.04491
-3.7757
-3.48363
-3.16885
-2.83169
-2.47277
-2.09294
-1.69315
-1.27452
-0.838232
-0.385596
0.081889
0.562503
1.05444
1.55592
2.06509
2.58003
3.09871
3.61919
4.13953
4.6578
5.17214
5.68074
6.18188
6.67392
7.15533
7.62469
8.0807
8.52217
8.948
9.35723
9.74895
10.1223
10.4765
10.8106
11.1235
11.4136
11.6818
11.8884
-8.8121
-8.81856
-8.82867
-8.8393
-8.84919
-8.85858
-8.86788
-8.87735
-8.88719
-8.89757
-8.9086
-8.92037
-8.93296
-8.94639
-8.96068
-8.97584
-8.99186
-9.00872
-9.02638
-9.04481
-9.06397
-9.08381
-9.10428
-9.12532
-9.14688
-9.16891
-9.19134
-9.21411
-9.23716
-9.26044
-9.28388
-9.30741
-9.33099
-9.35453
-9.37798
-9.40127
-9.42432
-9.44707
-9.46943
-9.49133
-9.51268
-9.53338
-9.55334
-9.57246
-9.59061
-9.60767
-9.62351
-9.63799
-9.65096
-9.66223
-9.67164
-9.67899
-9.68407
-9.68666
-9.68653
-9.68343
-9.67711
-9.66729
-9.6537
-9.63605
-9.61407
-9.58747
-9.55598
-9.51932
-9.47723
-9.42948
-9.37585
-9.31611
-9.25006
-9.1775
-9.09822
-9.01197
-8.91875
-8.81885
-8.71255
-8.60017
-8.48199
-8.35835
-8.22964
-8.09633
-7.95895
-7.81809
-7.67437
-7.52845
-7.38104
-7.23287
-7.08469
-6.93724
-6.79129
-6.64761
-6.5069
-6.36984
-6.23716
-6.10955
-5.98762
-5.8719
-5.76298
-5.66134
-5.56739
-5.48161
-5.40432
-5.33583
-5.27635
-5.22583
-5.18416
-5.15122
-5.12686
-5.11092
-5.10316
-5.10327
-5.11091
-5.12562
-5.14691
-5.17418
-5.2068
-5.24402
-5.28504
-5.32897
-5.37486
-5.42168
-5.46833
-5.51363
-5.55638
-5.59527
-5.62901
-5.65627
-5.67573
-5.686
-5.68569
-5.67339
-5.64768
-5.60712
-5.55016
-5.4753
-5.38148
-5.26793
-5.13387
-4.97857
-4.80137
-4.60175
-4.3793
-4.13378
-3.86512
-3.57335
-3.25867
-2.92141
-2.56218
-2.1818
-1.78124
-1.36162
-0.924152
-0.47019
-0.00125094
0.480965
0.974663
1.47802
1.98916
2.50613
3.02693
3.54958
4.07212
4.59263
5.10921
5.62005
6.12342
6.61765
7.10122
7.57268
8.03072
8.47412
8.90178
9.31269
9.70593
10.0806
10.4358
10.7706
11.0838
11.3737
11.641
11.8485
-8.83383
-8.83811
-8.84489
-8.85263
-8.86033
-8.86802
-8.87593
-8.88427
-8.89316
-8.90272
-8.91302
-8.92415
-8.93614
-8.94903
-8.96283
-8.97754
-8.99316
-9.00967
-9.02703
-9.04522
-9.06419
-9.08391
-9.10431
-9.12536
-9.14698
-9.16914
-9.19176
-9.2148
-9.23819
-9.26186
-9.28577
-9.30983
-9.334
-9.3582
-9.38237
-9.40643
-9.43032
-9.45395
-9.47725
-9.50013
-9.5225
-9.54426
-9.56532
-9.58555
-9.60483
-9.62304
-9.64004
-9.65566
-9.66975
-9.68213
-9.69261
-9.70097
-9.70699
-9.71044
-9.71107
-9.70861
-9.70277
-9.69328
-9.67983
-9.66211
-9.63982
-9.61266
-9.58033
-9.54254
-9.49902
-9.4495
-9.39375
-9.33149
-9.26246
-9.18635
-9.10284
-9.01193
-8.91392
-8.80907
-8.69768
-8.57999
-8.45633
-8.32706
-8.19261
-8.0535
-7.91031
-7.76368
-7.61429
-7.46286
-7.31014
-7.15694
-7.00407
-6.85233
-6.70253
-6.55544
-6.41181
-6.27244
-6.13801
-6.00917
-5.88658
-5.77083
-5.66236
-5.56172
-5.46934
-5.38557
-5.31078
-5.24523
-5.18916
-5.14262
-5.10541
-5.07733
-5.05816
-5.0477
-5.04565
-5.05169
-5.06542
-5.08637
-5.114
-5.14769
-5.18676
-5.23044
-5.2779
-5.32823
-5.38043
-5.43346
-5.4862
-5.53746
-5.58599
-5.63049
-5.66963
-5.70205
-5.72642
-5.74137
-5.74546
-5.73725
-5.71525
-5.67801
-5.62404
-5.55186
-5.46047
-5.34911
-5.21701
-5.06342
-4.88769
-4.68929
-4.46781
-4.22302
-3.95481
-3.66326
-3.34857
-3.0111
-2.65146
-2.27046
-1.86907
-1.44841
-1.00972
-0.554395
-0.083966
0.39987
0.895319
1.40053
1.91361
2.43258
2.95544
3.4802
4.00488
4.52753
5.04626
5.55924
6.06472
6.56103
7.04663
7.52006
7.97999
8.42519
8.85452
9.26696
9.66155
10.0373
10.3934
10.7288
11.0422
11.3319
11.5985
11.8072
-8.85187
-8.8541
-8.85775
-8.8626
-8.86802
-8.87384
-8.8802
-8.8872
-8.89495
-8.90351
-8.91295
-8.9233
-8.9346
-8.94688
-8.96015
-8.9744
-8.98963
-9.00582
-9.02294
-9.04097
-9.05985
-9.07954
-9.1
-9.12117
-9.143
-9.16543
-9.1884
-9.21185
-9.23572
-9.25995
-9.28447
-9.30921
-9.33412
-9.35911
-9.38412
-9.40908
-9.43391
-9.45853
-9.48285
-9.50678
-9.53023
-9.55311
-9.57528
-9.59665
-9.61708
-9.63643
-9.65456
-9.6713
-9.68648
-9.6999
-9.71137
-9.72066
-9.72753
-9.73173
-9.73299
-9.73102
-9.72551
-9.71616
-9.70265
-9.68464
-9.6618
-9.63381
-9.60036
-9.56113
-9.51584
-9.46417
-9.40584
-9.34049
-9.26768
-9.18704
-9.09863
-9.00275
-8.89965
-8.78954
-8.67264
-8.54924
-8.41969
-8.28439
-8.14385
-7.99862
-7.84934
-7.6967
-7.54145
-7.38436
-7.2263
-7.06809
-6.91061
-6.7547
-6.6012
-6.45097
-6.30481
-6.16346
-6.02766
-5.89812
-5.77542
-5.66014
-5.55279
-5.45377
-5.36354
-5.28245
-5.21077
-5.14879
-5.09667
-5.05453
-5.02228
-4.99956
-4.98609
-4.98158
-4.98571
-4.9981
-5.01832
-5.04586
-5.08016
-5.12055
-5.16633
-5.21669
-5.27078
-5.32766
-5.38631
-5.44565
-5.50455
-5.56179
-5.61613
-5.66623
-5.71075
-5.74831
-5.77752
-5.79704
-5.80543
-5.80119
-5.7828
-5.74873
-5.69755
-5.62791
-5.53881
-5.42953
-5.29926
-5.14728
-4.97292
-4.77564
-4.55504
-4.31089
-4.04307
-3.75167
-3.43691
-3.09918
-2.73908
-2.35743
-1.95519
-1.5335
-1.09362
-0.636968
-0.165092
0.320306
0.817427
1.3244
1.83931
2.36017
2.88496
3.41169
3.93835
4.463
4.98372
5.49867
6.00609
6.50431
6.99176
7.46698
7.92861
8.37541
8.80624
9.22002
9.61577
9.99253
10.3493
10.6851
10.9986
11.2882
11.554
11.7645
-8.86628
-8.86673
-8.86757
-8.8697
-8.8728
-8.87663
-8.88122
-8.88668
-8.89306
-8.9004
-8.90876
-8.91816
-8.92863
-8.94018
-8.95283
-8.96657
-8.98138
-8.99725
-9.01414
-9.03202
-9.05085
-9.07057
-9.09115
-9.11253
-9.13464
-9.15743
-9.18083
-9.20479
-9.22924
-9.2541
-9.27932
-9.30482
-9.33053
-9.35638
-9.38229
-9.40818
-9.43398
-9.45959
-9.48494
-9.50992
-9.53443
-9.55837
-9.58163
-9.60406
-9.62556
-9.64596
-9.66512
-9.68286
-9.699
-9.71333
-9.72565
-9.73571
-9.74325
-9.74801
-9.7497
-9.748
-9.74259
-9.73313
-9.71928
-9.70067
-9.67698
-9.64783
-9.61291
-9.57186
-9.52436
-9.47
-9.40836
-9.33882
-9.26107
-9.17535
-9.08189
-8.98086
-8.8724
-8.75669
-8.63396
-8.50454
-8.3688