/*--------------------------------*- C++ -*----------------------------------*\
| =========                 |                                                 |
| \\      /  F ield         | OpenFOAM: The Open Source CFD Toolbox           |
|  \\    /   O peration     | Version:  plus                                  |
|   \\  /    A nd           | Website:  www.openfoam.com                      |
|    \\/     M anipulation  |                                                 |
\*---------------------------------------------------------------------------*/
FoamFile
{
    version     2.0;
    format      ascii;
    class       surfaceScalarField;
    location    "100";
    object      phi;
}
// * * * * * * * * * * * * * * * * * * * * * * * * * * * * * * * * * * * * * //

dimensions      [0 3 -1 0 0 0 0];
oriented        oriented;


internalField   nonuniform List<scalar> 
24170
(
3.13272e-06
5.56898e-08
3.05824e-06
7.44712e-08
2.99846e-06
5.97839e-08
2.93886e-06
5.95992e-08
2.88141e-06
5.74522e-08
2.82766e-06
5.37504e-08
2.77781e-06
4.98465e-08
2.73166e-06
4.61501e-08
2.68894e-06
4.27206e-08
2.64939e-06
3.95513e-08
2.61277e-06
3.66257e-08
2.57884e-06
3.39236e-08
2.54742e-06
3.1423e-08
2.51831e-06
2.91064e-08
2.49133e-06
2.69815e-08
2.46611e-06
2.52243e-08
2.44041e-06
2.56998e-08
2.67971e-08
2.41361e-06
3.44251e-06
3.04241e-08
3.4309e-06
8.60888e-08
3.41495e-06
7.57299e-08
3.39927e-06
7.52778e-08
3.38246e-06
7.42653e-08
3.36491e-06
7.13033e-08
3.34696e-06
6.77939e-08
3.32883e-06
6.42824e-08
3.31069e-06
6.08576e-08
3.29271e-06
5.75297e-08
3.27503e-06
5.43064e-08
3.25776e-06
5.1192e-08
3.241e-06
4.81853e-08
3.22482e-06
4.52875e-08
3.20927e-06
4.25308e-08
3.19441e-06
4.0087e-08
3.18183e-06
3.82717e-08
3.38818e-08
3.17475e-06
3.66037e-06
3.25747e-08
3.66973e-06
7.67232e-08
3.67135e-06
7.4109e-08
3.67302e-06
7.36087e-08
3.67373e-06
7.35552e-08
3.67324e-06
7.17909e-08
3.67184e-06
6.92017e-08
3.66973e-06
6.6388e-08
3.66709e-06
6.35026e-08
3.66403e-06
6.05834e-08
3.66068e-06
5.7657e-08
3.65713e-06
5.47433e-08
3.65346e-06
5.1852e-08
3.64976e-06
4.89877e-08
3.64613e-06
4.61623e-08
3.64283e-06
4.33912e-08
3.64068e-06
4.04199e-08
3.5263e-08
3.6393e-06
3.9253e-06
3.26657e-08
3.93484e-06
6.7183e-08
3.93906e-06
6.9887e-08
3.94258e-06
7.00923e-08
3.94558e-06
7.05497e-08
3.94787e-06
6.94999e-08
3.94963e-06
6.74429e-08
3.95102e-06
6.49954e-08
3.95215e-06
6.23808e-08
3.95306e-06
5.96678e-08
3.95382e-06
5.68955e-08
3.95448e-06
5.40902e-08
3.95506e-06
5.12633e-08
3.95564e-06
4.84126e-08
3.95628e-06
4.55197e-08
3.95716e-06
4.25098e-08
3.95853e-06
3.90558e-08
3.4092e-08
3.9597e-06
4.20939e-06
3.04032e-08
4.21721e-06
5.93671e-08
4.22186e-06
6.52354e-08
4.2256e-06
6.63454e-08
4.22908e-06
6.707e-08
4.23216e-06
6.64213e-08
4.2349e-06
6.47088e-08
4.23738e-06
6.25076e-08
4.23969e-06
6.00765e-08
4.24185e-06
5.75054e-08
4.24391e-06
5.48411e-08
4.24588e-06
5.21122e-08
4.24782e-06
4.93293e-08
4.24975e-06
4.64837e-08
4.25173e-06
4.35394e-08
4.25384e-06
4.03973e-08
4.25609e-06
3.68001e-08
3.22696e-08
4.25792e-06
4.51199e-06
2.75007e-08
4.51874e-06
5.26168e-08
4.52371e-06
6.02622e-08
4.5278e-06
6.22627e-08
4.53163e-06
6.32394e-08
4.53515e-06
6.29013e-08
4.53837e-06
6.14894e-08
4.54136e-06
5.95163e-08
4.54418e-06
5.7255e-08
4.54687e-06
5.48137e-08
4.54946e-06
5.22474e-08
4.55199e-06
4.95883e-08
4.55447e-06
4.68478e-08
4.55694e-06
4.40152e-08
4.55943e-06
4.10513e-08
4.56196e-06
3.78675e-08
4.56446e-06
3.42957e-08
3.01458e-08
4.56658e-06
4.83559e-06
2.46299e-08
4.8417e-06
4.65048e-08
4.84689e-06
5.50737e-08
4.85128e-06
5.7874e-08
4.85539e-06
5.91324e-08
4.85921e-06
5.90763e-08
4.86276e-06
5.79459e-08
4.86608e-06
5.61952e-08
4.86923e-06
5.41012e-08
4.87226e-06
5.17882e-08
4.87518e-06
4.93205e-08
4.87804e-06
4.6735e-08
4.88084e-06
4.40461e-08
4.88361e-06
4.12458e-08
4.88636e-06
3.83019e-08
4.88907e-06
3.51508e-08
4.89167e-06
3.16997e-08
2.79123e-08
4.8939e-06
5.18231e-06
2.1903e-08
5.18787e-06
4.09401e-08
5.1931e-06
4.98446e-08
5.1977e-06
5.32774e-08
5.20202e-06
5.48056e-08
5.2061e-06
5.49985e-08
5.20992e-06
5.41259e-08
5.21353e-06
5.259e-08
5.21697e-06
5.06637e-08
5.22027e-06
4.84835e-08
5.22347e-06
4.61223e-08
5.22658e-06
4.36222e-08
5.22963e-06
4.10022e-08
5.23261e-06
3.82611e-08
5.23553e-06
3.53788e-08
5.23836e-06
3.23193e-08
5.24102e-06
2.90445e-08
2.55896e-08
5.24334e-06
5.55391e-06
1.93272e-08
5.55896e-06
3.5894e-08
5.5641e-06
4.47062e-08
5.56881e-06
4.85624e-08
5.57331e-06
5.03108e-08
5.5776e-06
5.07079e-08
5.58166e-06
5.00613e-08
5.58552e-06
4.87275e-08
5.58922e-06
4.69678e-08
5.59278e-06
4.49257e-08
5.59622e-06
4.26811e-08
5.59956e-06
4.02815e-08
5.60281e-06
3.77517e-08
5.60597e-06
3.50988e-08
5.60904e-06
3.2317e-08
5.61196e-06
2.93943e-08
5.61468e-06
2.63287e-08
2.31852e-08
5.61708e-06
5.95219e-06
1.69132e-08
5.95677e-06
3.13145e-08
5.96175e-06
3.97302e-08
5.96651e-06
4.37989e-08
5.97112e-06
4.56991e-08
5.97558e-06
4.62503e-08
5.97985e-06
4.57915e-08
5.98394e-06
4.46403e-08
5.98786e-06
4.30409e-08
5.99165e-06
4.11392e-08
5.99531e-06
3.902e-08
5.99886e-06
3.67357e-08
6.00229e-06
3.43172e-08
6.00561e-06
3.17804e-08
6.00879e-06
2.91325e-08
6.01181e-06
2.63803e-08
6.01459e-06
2.3543e-08
2.06936e-08
6.01708e-06
6.37906e-06
1.4667e-08
6.38323e-06
2.71411e-08
6.38801e-06
3.49489e-08
6.39278e-06
3.90365e-08
6.39746e-06
4.10134e-08
6.40204e-06
4.16678e-08
6.40648e-06
4.13557e-08
6.41076e-06
4.03628e-08
6.41488e-06
3.89134e-08
6.41887e-06
3.71512e-08
6.42273e-06
3.51642e-08
6.42646e-06
3.30084e-08
6.43005e-06
3.07203e-08
6.43351e-06
2.83239e-08
6.4368e-06
2.58371e-08
6.43991e-06
2.3279e-08
6.44277e-06
2.06798e-08
1.81076e-08
6.44535e-06
5.74261e-06
1.28896e-08
5.74586e-06
2.38927e-08
5.74974e-06
3.10666e-08
5.75374e-06
3.50359e-08
5.75774e-06
3.70189e-08
5.76168e-06
3.77234e-08
5.76553e-06
3.75037e-08
5.76927e-06
3.66246e-08
5.77289e-06
3.52927e-08
5.7764e-06
3.36469e-08
5.77979e-06
3.17756e-08
5.78306e-06
2.97373e-08
5.7862e-06
2.75724e-08
5.78922e-06
2.53103e-08
5.79208e-06
2.29754e-08
5.79477e-06
2.05936e-08
5.79725e-06
1.8199e-08
1.58595e-08
5.79949e-06
7.00005e-06
1.09938e-08
7.00352e-06
2.04195e-08
7.00779e-06
2.68045e-08
7.01231e-06
3.05159e-08
7.0169e-06
3.24281e-08
7.02148e-06
3.31425e-08
7.02599e-06
3.29942e-08
7.03039e-06
3.22228e-08
7.03467e-06
3.10142e-08
7.03882e-06
2.9499e-08
7.04283e-06
2.77643e-08
7.04669e-06
2.58698e-08
7.05041e-06
2.38588e-08
7.05395e-06
2.17652e-08
7.05731e-06
1.96181e-08
7.06046e-06
1.74474e-08
7.06337e-06
1.52882e-08
1.32004e-08
7.06603e-06
8.53284e-06
8.99714e-09
8.53651e-06
1.67508e-08
8.54114e-06
2.21818e-08
8.54618e-06
2.5472e-08
8.5514e-06
2.72106e-08
8.55666e-06
2.78758e-08
8.56189e-06
2.77648e-08
8.56703e-06
2.70869e-08
8.57204e-06
2.60037e-08
8.5769e-06
2.46333e-08
8.58161e-06
2.30582e-08
8.58614e-06
2.13374e-08
8.59049e-06
1.95154e-08
8.59462e-06
1.76281e-08
8.59853e-06
1.5707e-08
8.6022e-06
1.37827e-08
8.6056e-06
1.18879e-08
1.00722e-08
8.60873e-06
1.04013e-05
6.91505e-09
1.04051e-05
1.29087e-08
1.04101e-05
1.72153e-08
1.04157e-05
1.99032e-08
1.04215e-05
2.13411e-08
1.04275e-05
2.18778e-08
1.04336e-05
2.17556e-08
1.04395e-05
2.11475e-08
1.04453e-05
2.01866e-08
1.0451e-05
1.89738e-08
1.04564e-05
1.75829e-08
1.04617e-05
1.60685e-08
1.04668e-05
1.44734e-08
1.04716e-05
1.28324e-08
1.04761e-05
1.11762e-08
1.04803e-05
9.53291e-09
1.04843e-05
7.93049e-09
6.40837e-09
1.0488e-05
1.2679e-05
4.752e-09
1.2683e-05
8.88854e-09
1.26883e-05
1.19016e-08
1.26944e-05
1.37983e-08
1.27009e-05
1.4788e-08
1.27077e-05
1.50977e-08
1.27146e-05
1.49022e-08
1.27214e-05
1.43307e-08
1.27281e-05
1.34835e-08
1.27346e-05
1.24387e-08
1.2741e-05
1.12561e-08
1.2747e-05
9.98179e-09
1.27529e-05
8.65223e-09
1.27584e-05
7.29786e-09
1.27636e-05
5.94484e-09
1.27686e-05
4.61627e-09
1.27731e-05
3.33399e-09
2.12821e-09
1.27774e-05
1.54554e-05
2.48449e-09
1.54597e-05
4.63766e-09
1.54654e-05
6.18236e-09
1.54721e-05
7.09726e-09
1.54794e-05
7.48069e-09
1.54871e-05
7.45254e-09
1.54949e-05
7.11279e-09
1.55027e-05
6.53904e-09
1.55103e-05
5.79324e-09
1.55179e-05
4.92534e-09
1.55251e-05
3.97514e-09
1.55321e-05
2.97443e-09
1.55388e-05
1.94922e-09
1.55452e-05
9.21405e-10
1.55513e-05
-9.02659e-11
1.55569e-05
-1.06962e-09
1.55623e-05
-2.00183e-09
-2.86484e-09
1.55673e-05
1.88401e-05
3.51456e-11
1.88447e-05
8.37333e-12
1.8851e-05
-1.22095e-10
1.88585e-05
-3.8618e-10
1.88668e-05
-7.66634e-10
1.88754e-05
-1.24159e-09
1.88844e-05
-1.79235e-09
1.88933e-05
-2.40141e-09
1.89021e-05
-3.05181e-09
1.89108e-05
-3.7281e-09
1.89192e-05
-4.41664e-09
1.89273e-05
-5.10538e-09
1.8935e-05
-5.78349e-09
1.89424e-05
-6.44125e-09
1.89493e-05
-7.06997e-09
1.89559e-05
-7.66186e-09
1.89621e-05
-8.20952e-09
-8.69802e-09
1.8968e-05
2.29662e-05
-2.78373e-09
2.29715e-05
-5.35154e-09
2.29789e-05
-7.45996e-09
2.29876e-05
-9.12688e-09
2.29972e-05
-1.04142e-08
2.30074e-05
-1.14161e-08
2.30178e-05
-1.22134e-08
2.30283e-05
-1.28597e-08
2.30386e-05
-1.33908e-08
2.30487e-05
-1.38336e-08
2.30585e-05
-1.42073e-08
2.3068e-05
-1.45249e-08
2.3077e-05
-1.47947e-08
2.30855e-05
-1.50217e-08
2.30937e-05
-1.5209e-08
2.31014e-05
-1.53584e-08
2.31086e-05
-1.54701e-08
-1.55363e-08
2.31155e-05
1.68129e-05
-4.96384e-09
1.6817e-05
-9.48871e-09
1.68227e-05
-1.31038e-08
1.68293e-05
-1.57768e-08
1.68366e-05
-1.766e-08
1.68441e-05
-1.89787e-08
1.68518e-05
-1.98991e-08
1.68595e-05
-2.05238e-08
1.6867e-05
-2.09263e-08
1.68743e-05
-2.11645e-08
1.68814e-05
-2.12817e-08
1.68882e-05
-2.13081e-08
1.68947e-05
-2.1265e-08
1.69008e-05
-2.11678e-08
1.69066e-05
-2.10272e-08
1.69121e-05
-2.0851e-08
1.69173e-05
-2.0644e-08
-2.04027e-08
1.69222e-05
1.46366e-05
-7.04476e-09
1.46407e-05
-1.34913e-08
1.46461e-05
-1.85419e-08
1.46524e-05
-2.20501e-08
1.46591e-05
-2.43503e-08
1.46659e-05
-2.5859e-08
1.46729e-05
-2.68168e-08
1.46797e-05
-2.73597e-08
1.46864e-05
-2.75962e-08
1.46928e-05
-2.76137e-08
1.4699e-05
-2.74748e-08
1.47049e-05
-2.72225e-08
1.47105e-05
-2.68881e-08
1.47159e-05
-2.64946e-08
1.47209e-05
-2.60591e-08
1.47256e-05
-2.55944e-08
1.47301e-05
-2.51093e-08
-2.46049e-08
1.47343e-05
1.27421e-05
-9.03592e-09
1.27462e-05
-1.75327e-08
1.27516e-05
-2.40083e-08
1.27577e-05
-2.81163e-08
1.2764e-05
-3.06268e-08
1.27703e-05
-3.22101e-08
1.27766e-05
-3.31275e-08
1.27828e-05
-3.35292e-08
1.27888e-05
-3.35613e-08
1.27945e-05
-3.3339e-08
1.28e-05
-3.29391e-08
1.28052e-05
-3.24135e-08
1.28101e-05
-3.18003e-08
1.28147e-05
-3.11277e-08
1.28191e-05
-3.04171e-08
1.28231e-05
-2.96848e-08
1.2827e-05
-2.89425e-08
-2.8194e-08
1.28306e-05
1.10927e-05
-1.0823e-08
1.10969e-05
-2.17565e-08
1.11026e-05
-2.96719e-08
1.11085e-05
-3.40281e-08
1.11144e-05
-3.65307e-08
1.11203e-05
-3.8087e-08
1.11261e-05
-3.88862e-08
1.11316e-05
-3.90912e-08
1.11369e-05
-3.88911e-08
1.1142e-05
-3.84204e-08
1.11469e-05
-3.77624e-08
1.11514e-05
-3.69736e-08
1.11557e-05
-3.60964e-08
1.11597e-05
-3.51626e-08
1.11635e-05
-3.41971e-08
1.11671e-05
-3.32201e-08
1.11704e-05
-3.22497e-08
-3.13012e-08
1.11735e-05
9.6566e-06
-1.22073e-08
9.66117e-06
-2.63286e-08
9.66704e-06
-3.55454e-08
9.67271e-06
-3.96943e-08
9.67823e-06
-4.20549e-08
9.68366e-06
-4.35111e-08
9.68887e-06
-4.41009e-08
9.69383e-06
-4.40457e-08
9.69852e-06
-4.3585e-08
9.70296e-06
-4.28595e-08
9.70715e-06
-4.19498e-08
9.71109e-06
-4.09127e-08
9.71478e-06
-3.97913e-08
9.71824e-06
-3.86175e-08
9.72146e-06
-3.74157e-08
9.72444e-06
-3.62059e-08
9.7272e-06
-3.50052e-08
-3.3825e-08
9.72972e-06
8.406e-06
-1.2857e-08
8.41135e-06
-3.16786e-08
8.41718e-06
-4.13717e-08
8.42227e-06
-4.47896e-08
8.42729e-06
-4.70684e-08
8.43221e-06
-4.84359e-08
8.43689e-06
-4.87746e-08
8.44127e-06
-4.84348e-08
8.44539e-06
-4.77043e-08
8.44926e-06
-4.67213e-08
8.45287e-06
-4.55629e-08
8.45624e-06
-4.42859e-08
8.45938e-06
-4.29332e-08
8.4623e-06
-4.15353e-08
8.465e-06
-4.01147e-08
8.46749e-06
-3.86921e-08
8.46978e-06
-3.72968e-08
-3.5991e-08
8.47194e-06
7.31568e-06
-1.12517e-08
7.32298e-06
-3.89755e-08
7.32865e-06
-4.70418e-08
7.33302e-06
-4.91654e-08
7.33738e-06
-5.14285e-08
7.3416e-06
-5.26573e-08
7.34555e-06
-5.27233e-08
7.34924e-06
-5.21277e-08
7.35271e-06
-5.11647e-08
7.35594e-06
-4.99556e-08
7.35895e-06
-4.85743e-08
7.36175e-06
-4.70801e-08
7.36433e-06
-4.55166e-08
7.36671e-06
-4.39122e-08
7.36887e-06
-4.2284e-08
7.37082e-06
-4.06411e-08
7.37252e-06
-3.89892e-08
-3.73247e-08
7.37385e-06
6.36251e-06
-3.69185e-09
6.37312e-06
-4.95881e-08
6.37901e-06
-5.29352e-08
6.38356e-06
-5.3718e-08
6.38789e-06
-5.57501e-08
6.39161e-06
-5.63831e-08
6.39478e-06
-5.58888e-08
6.39754e-06
-5.48919e-08
6.4e-06
-5.36204e-08
6.40219e-06
-5.21477e-08
6.40415e-06
-5.05314e-08
6.40589e-06
-4.88238e-08
6.40744e-06
-4.70636e-08
6.4088e-06
-4.52748e-08
6.40998e-06
-4.34678e-08
6.41098e-06
-4.16413e-08
6.41179e-06
-3.9796e-08
-3.80199e-08
6.41249e-06
5.53241e-06
9.36468e-09
5.54345e-06
-6.06271e-08
5.54684e-06
-5.63257e-08
5.55072e-06
-5.76019e-08
5.5545e-06
-5.95242e-08
5.55733e-06
-5.92174e-08
5.55928e-06
-5.78351e-08
5.56051e-06
-5.61228e-08
5.56114e-06
-5.42574e-08
5.56128e-06
-5.22843e-08
5.561e-06
-5.02463e-08
5.56036e-06
-4.81834e-08
5.55942e-06
-4.61239e-08
5.55822e-06
-4.40832e-08
5.55682e-06
-4.20627e-08
5.55522e-06
-4.00386e-08
5.55335e-06
-3.79294e-08
-3.54776e-08
5.55081e-06
4.84978e-06
-1.28106e-08
4.84474e-06
-5.558e-08
4.83364e-06
-4.52304e-08
4.82438e-06
-4.83404e-08
4.81497e-06
-5.01129e-08
4.80508e-06
-4.93326e-08
4.79476e-06
-4.75103e-08
4.78399e-06
-4.53592e-08
4.77283e-06
-4.30908e-08
4.76133e-06
-4.07916e-08
4.74961e-06
-3.85194e-08
4.73774e-06
-3.63132e-08
4.72581e-06
-3.41953e-08
4.7139e-06
-3.2175e-08
4.70209e-06
-3.02498e-08
4.69045e-06
-2.83982e-08
4.67905e-06
-2.65347e-08
-2.43004e-08
4.66788e-06
4.18987e-06
4.13429e-06
4.08906e-06
4.04071e-06
3.9906e-06
3.94127e-06
3.89376e-06
3.8484e-06
3.80531e-06
3.76452e-06
3.726e-06
3.68968e-06
3.65549e-06
3.62331e-06
3.59306e-06
3.56467e-06
3.53813e-06
3.51383e-06
3.27437e-08
-3.27437e-08
5.53068e-08
-2.25633e-08
6.24288e-08
-7.12231e-09
5.42253e-08
8.20325e-09
3.26977e-08
2.15274e-08
7.77135e-10
3.19204e-08
-3.86573e-08
3.94342e-08
-8.26911e-08
4.40336e-08
-1.2957e-07
4.6879e-08
-1.78314e-07
4.87436e-08
-2.28309e-07
4.9995e-08
-2.79123e-07
5.0814e-08
-3.30418e-07
5.12945e-08
-3.81911e-07
5.14935e-08
-4.33366e-07
5.14545e-08
-4.84584e-07
5.12176e-08
-5.3541e-07
5.0826e-08
-5.85736e-07
5.03258e-08
-6.35476e-07
4.97399e-08
-6.84556e-07
4.90808e-08
-7.32918e-07
4.83613e-08
-7.80512e-07
4.7594e-08
-8.27303e-07
4.67905e-08
-8.73264e-07
4.59614e-08
-9.1838e-07
4.5116e-08
-9.62643e-07
4.42626e-08
-1.00605e-06
4.34081e-08
-1.04861e-06
4.25586e-08
-1.09033e-06
4.17193e-08
-1.13122e-06
4.0894e-08
-1.17131e-06
4.0086e-08
-1.21061e-06
3.92978e-08
-1.24914e-06
3.85311e-08
-1.28693e-06
3.77868e-08
-1.32399e-06
3.70656e-08
-1.36036e-06
3.63673e-08
-1.39605e-06
3.56912e-08
-1.43109e-06
3.50365e-08
-1.46549e-06
3.44017e-08
-1.49927e-06
3.37849e-08
-1.53246e-06
3.3184e-08
-1.56505e-06
3.25966e-08
-1.59707e-06
3.20199e-08
-1.62852e-06
3.14512e-08
-1.65941e-06
3.08872e-08
-1.68974e-06
3.03246e-08
-1.7195e-06
2.976e-08
-1.74869e-06
2.91899e-08
-1.7773e-06
2.86108e-08
-1.80532e-06
2.80189e-08
-1.83273e-06
2.74107e-08
-1.85951e-06
2.67826e-08
-1.88564e-06
2.61311e-08
-1.91109e-06
2.54528e-08
-1.93584e-06
2.47444e-08
-1.95984e-06
2.4003e-08
-1.98307e-06
2.32258e-08
-2.00548e-06
2.24101e-08
-2.02703e-06
2.1554e-08
-2.04769e-06
2.06554e-08
-2.0674e-06
1.97131e-08
-2.08613e-06
1.87261e-08
-2.10382e-06
1.7694e-08
-2.12044e-06
1.66167e-08
-2.13593e-06
1.54952e-08
-2.15026e-06
1.43305e-08
-2.16339e-06
1.31246e-08
-2.17527e-06
1.18802e-08
-2.18587e-06
1.06006e-08
-2.19516e-06
9.28969e-09
-2.20311e-06
7.95238e-09
-2.20971e-06
6.59409e-09
-2.21493e-06
5.22111e-09
-2.21877e-06
3.84056e-09
-2.22123e-06
2.46034e-09
-2.22232e-06
1.08941e-09
-2.22206e-06
-2.62163e-10
-2.22047e-06
-1.58492e-09
-2.2176e-06
-2.87067e-09
-2.21349e-06
-4.1112e-09
-2.2082e-06
-5.29281e-09
-2.2018e-06
-6.39886e-09
-2.19438e-06
-7.41608e-09
-2.18605e-06
-8.33226e-09
-2.17691e-06
-9.13587e-09
-2.1671e-06
-9.81623e-09
-2.15673e-06
-1.03634e-08
-2.14597e-06
-1.07685e-08
-2.13494e-06
-1.10229e-08
-2.12382e-06
-1.11192e-08
-2.11277e-06
-1.1051e-08
-2.10196e-06
-1.08126e-08
-2.09156e-06
-1.03997e-08
-2.08175e-06
-9.80941e-09
-2.07271e-06
-9.04308e-09
-2.06461e-06
-8.10018e-09
-2.05763e-06
-6.97855e-09
-2.05194e-06
-5.68659e-09
-2.04771e-06
-4.23744e-09
-2.04507e-06
-2.64016e-09
-2.04415e-06
-9.12982e-10
-2.04508e-06
9.2934e-10
-2.04796e-06
2.87184e-09
-2.05285e-06
4.89748e-09
-2.05984e-06
6.98781e-09
-2.06897e-06
9.12291e-09
-2.08025e-06
1.12819e-08
-2.09369e-06
1.34432e-08
-2.10928e-06
1.55845e-08
-2.12696e-06
1.76833e-08
-2.14668e-06
1.97174e-08
-2.16834e-06
2.16649e-08
-2.19185e-06
2.35048e-08
-2.21707e-06
2.5217e-08
-2.24385e-06
2.67829e-08
-2.27203e-06
2.81852e-08
-2.30144e-06
2.9408e-08
-2.33188e-06
3.04371e-08
-2.36314e-06
3.12597e-08
-2.395e-06
3.18639e-08
-2.42724e-06
3.22389e-08
-2.45962e-06
3.23742e-08
-2.49188e-06
3.22602e-08
-2.52377e-06
3.18878e-08
-2.55502e-06
3.12495e-08
-2.58536e-06
3.03398e-08
-2.61451e-06
2.91561e-08
-2.64221e-06
2.77003e-08
-2.66819e-06
2.59788e-08
-2.6922e-06
2.40035e-08
-2.71399e-06
2.17912e-08
-2.73335e-06
1.93607e-08
-2.75008e-06
1.67283e-08
-2.76398e-06
1.3903e-08
-2.77486e-06
1.08831e-08
-2.7825e-06
7.64201e-09
-2.78668e-06
4.18133e-09
-2.78725e-06
5.65176e-10
-2.78408e-06
-3.17163e-09
-2.77704e-06
-7.03342e-09
-2.76604e-06
-1.10041e-08
-2.75097e-06
-1.50672e-08
-2.73176e-06
-1.92055e-08
-2.70836e-06
-2.34014e-08
-2.68072e-06
-2.76387e-08
-2.64882e-06
-3.19005e-08
-2.61265e-06
-3.6169e-08
-2.57223e-06
-4.04258e-08
-2.52757e-06
-4.46529e-08
-2.47874e-06
-4.88336e-08
-2.42579e-06
-5.29532e-08
-2.36879e-06
-5.69979e-08
-2.30784e-06
-6.09514e-08
-2.24304e-06
-6.47955e-08
-2.17453e-06
-6.85143e-08
-2.10243e-06
-7.20978e-08
-2.02689e-06
-7.55363e-08
-1.94808e-06
-7.88132e-08
-1.86616e-06
-8.19146e-08
-1.78132e-06
-8.48405e-08
-1.69373e-06
-8.75895e-08
-1.60359e-06
-9.01418e-08
-1.51109e-06
-9.25005e-08
-1.41641e-06
-9.46838e-08
-1.31973e-06
-9.66735e-08
-1.22125e-06
-9.84803e-08
-1.12116e-06
-1.00097e-07
-1.01964e-06
-1.01517e-07
-9.1685e-07
-1.02789e-07
-8.13034e-07
-1.03816e-07
-7.08284e-07
-1.04749e-07
-6.02929e-07
-1.05355e-07
-4.96833e-07
-1.06096e-07
-3.90766e-07
-1.06066e-07
-2.85095e-07
-1.05671e-07
-1.78436e-07
-1.06659e-07
-7.13766e-08
-1.07059e-07
3.30378e-08
-1.04414e-07
1.27986e-07
-9.49481e-08
-5.39177e-08
1.81904e-07
5.64738e-09
-3.83912e-08
-4.72708e-09
-1.21893e-08
-2.37962e-08
1.19464e-08
-4.81187e-08
3.25255e-08
-7.62656e-08
4.96741e-08
-1.07885e-07
6.35392e-08
-1.42631e-07
7.41805e-08
-1.80511e-07
8.19134e-08
-2.21079e-07
8.74463e-08
-2.63716e-07
9.13806e-08
-3.07869e-07
9.41481e-08
-3.5309e-07
9.60349e-08
-3.99025e-07
9.72299e-08
-4.45396e-07
9.78642e-08
-4.91979e-07
9.80367e-08
-5.38589e-07
9.78278e-08
-5.8507e-07
9.73073e-08
-6.31279e-07
9.65341e-08
-6.77093e-07
9.55542e-08
-7.22418e-07
9.44053e-08
-7.67176e-07
9.31197e-08
-8.11308e-07
9.1726e-08
-8.54767e-07
9.02492e-08
-8.97517e-07
8.87114e-08
-9.39533e-07
8.71318e-08
-9.80798e-07
8.55274e-08
-1.0213e-06
8.39126e-08
-1.06104e-06
8.22997e-08
-1.10002e-06
8.0699e-08
-1.13825e-06
7.9119e-08
-1.17573e-06
7.75665e-08
-1.21248e-06
7.60468e-08
-1.24851e-06
7.45637e-08
-1.28384e-06
7.31199e-08
-1.3185e-06
7.17168e-08
-1.35248e-06
7.03546e-08
-1.38582e-06
6.90328e-08
-1.41854e-06
6.77497e-08
-1.45064e-06
6.65031e-08
-1.48214e-06
6.52897e-08
-1.51307e-06
6.41059e-08
-1.54342e-06
6.29471e-08
-1.57321e-06
6.18086e-08
-1.60244e-06
6.06848e-08
-1.63112e-06
5.957e-08
-1.65926e-06
5.8458e-08
-1.68684e-06
5.73423e-08
-1.71386e-06
5.62163e-08
-1.74033e-06
5.50732e-08
-1.76621e-06
5.39061e-08
-1.79151e-06
5.27079e-08
-1.8162e-06
5.14721e-08
-1.84026e-06
5.01916e-08
-1.86367e-06
4.88602e-08
-1.8864e-06
4.74715e-08
-1.90841e-06
4.60199e-08
-1.92969e-06
4.44998e-08
-1.95019e-06
4.29065e-08
-1.96987e-06
4.1236e-08
-1.9887e-06
3.94846e-08
-2.00663e-06
3.76499e-08
-2.02364e-06
3.57302e-08
-2.03967e-06
3.37247e-08
-2.05469e-06
3.16339e-08
-2.06865e-06
2.94591e-08
-2.08152e-06
2.72033e-08
-2.09327e-06
2.48703e-08
-2.10385e-06
2.24657e-08
-2.11325e-06
1.99959e-08
-2.12143e-06
1.74692e-08
-2.12837e-06
1.48952e-08
-2.13406e-06
1.22848e-08
-2.13849e-06
9.65049e-09
-2.14166e-06
7.00601e-09
-2.14356e-06
4.36662e-09
-2.14422e-06
1.74877e-09
-2.14366e-06
-8.29788e-10
-2.14189e-06
-3.35169e-09
-2.13897e-06
-5.79533e-09
-2.13494e-06
-8.13575e-09
-2.12989e-06
-1.03481e-08
-2.12388e-06
-1.24075e-08
-2.117e-06
-1.42897e-08
-2.10937e-06
-1.59717e-08
-2.10107e-06
-1.74319e-08
-2.09224e-06
-1.86502e-08
-2.08299e-06
-1.96081e-08
-2.07347e-06
-2.02889e-08
-2.06382e-06
-2.06776e-08
-2.05417e-06
-2.07613e-08
-2.0447e-06
-2.05293e-08
-2.03553e-06
-1.99729e-08
-2.02685e-06
-1.90861e-08
-2.01879e-06
-1.78658e-08
-2.01152e-06
-1.63117e-08
-2.0052e-06
-1.4426e-08
-1.99996e-06
-1.2213e-08
-1.99597e-06
-9.68627e-09
-1.99334e-06
-6.8654e-09
-1.99221e-06
-3.77002e-09
-1.99269e-06
-4.30563e-10
-1.99489e-06
3.12356e-09
-1.99888e-06
6.86175e-09
-2.00473e-06
1.0751e-08
-2.0125e-06
1.4756e-08
-2.02222e-06
1.88389e-08
-2.0339e-06
2.29603e-08
-2.04753e-06
2.70792e-08
-2.0631e-06
3.11538e-08
-2.08056e-06
3.51415e-08
-2.09984e-06
3.90002e-08
-2.12087e-06
4.2688e-08
-2.14353e-06
4.61643e-08
-2.1677e-06
4.93901e-08
-2.19325e-06
5.23286e-08
-2.22001e-06
5.4945e-08
-2.24781e-06
5.72074e-08
-2.27646e-06
5.90864e-08
-2.30575e-06
6.05557e-08
-2.33548e-06
6.15911e-08
-2.36541e-06
6.2171e-08
-2.39531e-06
6.22757e-08
-2.42494e-06
6.18876e-08
-2.45405e-06
6.09915e-08
-2.48237e-06
5.95751e-08
-2.50966e-06
5.76298e-08
-2.53566e-06
5.51522e-08
-2.5601e-06
5.21456e-08
-2.58275e-06
4.86204e-08
-2.60334e-06
4.45953e-08
-2.62164e-06
4.00958e-08
-2.63743e-06
3.51513e-08
-2.65049e-06
2.9788e-08
-2.66061e-06
2.40232e-08
-2.66759e-06
1.78614e-08
-2.67122e-06
1.12758e-08
-2.67136e-06
4.31402e-09
-2.66785e-06
-2.94026e-09
-2.66056e-06
-1.04571e-08
-2.64938e-06
-1.82177e-08
-2.63419e-06
-2.61931e-08
-2.6149e-06
-3.43516e-08
-2.59145e-06
-4.26604e-08
-2.56376e-06
-5.10857e-08
-2.53181e-06
-5.95945e-08
-2.49555e-06
-6.81529e-08
-2.455e-06
-7.67246e-08
-2.41015e-06
-8.52732e-08
-2.36104e-06
-9.37638e-08
-2.30771e-06
-1.02163e-07
-2.25022e-06
-1.10442e-07
-2.18865e-06
-1.18572e-07
-2.12308e-06
-1.26519e-07
-2.05362e-06
-1.34249e-07
-1.98041e-06
-1.41729e-07
-1.90357e-06
-1.48939e-07
-1.82324e-06
-1.55863e-07
-1.73959e-06
-1.62467e-07
-1.65278e-06
-1.68723e-07
-1.56299e-06
-1.7463e-07
-1.47039e-06
-1.80189e-07
-1.37517e-06
-1.85361e-07
-1.27752e-06
-1.90147e-07
-1.17762e-06
-1.94586e-07
-1.07565e-06
-1.98639e-07
-9.7181e-07
-2.02323e-07
-8.66264e-07
-2.05643e-07
-7.59217e-07
-2.08564e-07
-6.50799e-07
-2.11206e-07
-5.41226e-07
-2.1339e-07
-4.30593e-07
-2.15381e-07
-3.19106e-07
-2.16842e-07
-2.0693e-07
-2.18272e-07
-9.33298e-08
-2.19666e-07
2.05308e-08
-2.19531e-07
1.32302e-07
-2.18431e-07
2.40304e-07
-2.15061e-07
3.42265e-07
-2.06375e-07
4.33675e-07
-1.86357e-07
-1.42917e-07
5.22674e-07
-2.08845e-08
-1.75069e-08
-4.88121e-08
1.5738e-08
-7.79427e-08
4.10769e-08
-1.07584e-07
6.21663e-08
-1.37943e-07
8.00337e-08
-1.69372e-07
9.49678e-08
-2.02277e-07
1.07086e-07
-2.36968e-07
1.16604e-07
-2.73416e-07
1.23895e-07
-3.11396e-07
1.2936e-07
-3.50606e-07
1.33358e-07
-3.90748e-07
1.36178e-07
-4.31559e-07
1.38041e-07
-4.72814e-07
1.39119e-07
-5.14326e-07
1.39548e-07
-5.55934e-07
1.39436e-07
-5.975e-07
1.38874e-07
-6.38903e-07
1.37938e-07
-6.80041e-07
1.36691e-07
-7.20826e-07
1.3519e-07
-7.61186e-07
1.33481e-07
-8.01065e-07
1.31604e-07
-8.40414e-07
1.29598e-07
-8.79196e-07
1.27493e-07
-9.17382e-07
1.25318e-07
-9.5495e-07
1.23096e-07
-9.91888e-07
1.2085e-07
-1.02818e-06
1.18596e-07
-1.06384e-06
1.1635e-07
-1.09884e-06
1.14126e-07
-1.13321e-06
1.11932e-07
-1.16694e-06
1.09778e-07
-1.20004e-06
1.07669e-07
-1.23254e-06
1.0561e-07
-1.26442e-06
1.03604e-07
-1.29572e-06
1.01651e-07
-1.32644e-06
9.9751e-08
-1.35659e-06
9.79027e-08
-1.38619e-06
9.6103e-08
-1.41525e-06
9.4348e-08
-1.44377e-06
9.26326e-08
-1.47178e-06
9.0951e-08
-1.49927e-06
8.92965e-08
-1.52624e-06
8.76616e-08
-1.55271e-06
8.60381e-08
-1.57867e-06
8.44176e-08
-1.60412e-06
8.2791e-08
-1.62905e-06
8.11488e-08
-1.65346e-06
7.94812e-08
-1.67733e-06
7.77786e-08
-1.70066e-06
7.6031e-08
-1.72341e-06
7.42286e-08
-1.74558e-06
7.23617e-08
-1.76714e-06
7.04209e-08
-1.78807e-06
6.83974e-08
-1.80833e-06
6.62827e-08
-1.8279e-06
6.4069e-08
-1.84675e-06
6.17496e-08
-1.86483e-06
5.93183e-08
-1.88211e-06
5.67702e-08
-1.89857e-06
5.41017e-08
-1.91415e-06
5.13104e-08
-1.92882e-06
4.83954e-08
-1.94254e-06
4.53573e-08
-1.95528e-06
4.21985e-08
-1.967e-06
3.89232e-08
-1.97767e-06
3.55374e-08
-1.98725e-06
3.20492e-08
-1.99572e-06
2.84686e-08
-2.00306e-06
2.48077e-08
-2.00925e-06
2.10807e-08
-2.01427e-06
1.73039e-08
-2.01811e-06
1.34954e-08
-2.02078e-06
9.67572e-09
-2.02228e-06
5.8668e-09
-2.02263e-06
2.09261e-09
-2.02183e-06
-1.62123e-09
-2.01994e-06
-5.24782e-09
-2.01698e-06
-8.75263e-09
-2.01302e-06
-1.20972e-08
-2.00812e-06
-1.52459e-08
-2.00236e-06
-1.81648e-08
-1.99583e-06
-2.08204e-08
-1.98862e-06
-2.31809e-08
-1.98084e-06
-2.52159e-08
-1.97259e-06
-2.6897e-08
-1.964e-06
-2.81985e-08
-1.9552e-06
-2.90968e-08
-1.9463e-06
-2.95717e-08
-1.93746e-06
-2.96057e-08
-1.9288e-06
-2.91851e-08
-1.92047e-06
-2.82991e-08
-1.91262e-06
-2.69409e-08
-1.90538e-06
-2.51068e-08
-1.89889e-06
-2.27978e-08
-1.8933e-06
-2.00204e-08
-1.88873e-06
-1.67843e-08
-1.88531e-06
-1.31041e-08
-1.88317e-06
-9.00408e-09
-1.88242e-06
-4.51805e-09
-1.88317e-06
3.13507e-10
-1.88549e-06
5.4481e-09
-1.88947e-06
1.08409e-08
-1.89517e-06
1.6444e-08
-1.90262e-06
2.22063e-08
-1.91185e-06
2.80741e-08
-1.92288e-06
3.39908e-08
-1.9357e-06
3.98983e-08
-1.95029e-06
4.57369e-08
-1.96659e-06
5.14462e-08
-1.98456e-06
5.69656e-08
-2.0041e-06
6.22352e-08
-2.02514e-06
6.71964e-08
-2.04754e-06
7.17923e-08
-2.07118e-06
7.59688e-08
-2.09591e-06
7.96745e-08
-2.12156e-06
8.28616e-08
-2.14796e-06
8.54859e-08
-2.17491e-06
8.75073e-08
-2.20221e-06
8.88894e-08
-2.22964e-06
8.96e-08
-2.25698e-06
8.96103e-08
-2.28399e-06
8.88956e-08
-2.31043e-06
8.7435e-08
-2.33607e-06
8.52127e-08
-2.36065e-06
8.22177e-08
-2.38395e-06
7.84459e-08
-2.4057e-06
7.39012e-08
-2.42568e-06
6.85959e-08
-2.44364e-06
6.25518e-08
-2.45934e-06
5.57992e-08
-2.47256e-06
4.83725e-08
-2.48308e-06
4.03049e-08
-2.49067e-06
3.16206e-08
-2.49515e-06
2.2337e-08
-2.49633e-06
1.24522e-08
-2.49405e-06
2.04087e-09
-2.48819e-06
-8.8011e-09
-2.47861e-06
-2.00393e-08
-2.46519e-06
-3.16395e-08
-2.44782e-06
-4.35598e-08
-2.42642e-06
-5.57548e-08
-2.4009e-06
-6.81769e-08
-2.37121e-06
-8.07769e-08
-2.3373e-06
-9.35053e-08
-2.29914e-06
-1.0631e-07
-2.25673e-06
-1.19137e-07
-2.21007e-06
-1.31932e-07
-2.15919e-06
-1.44642e-07
-2.10413e-06
-1.57219e-07
-2.04496e-06
-1.69616e-07
-1.98174e-06
-1.81793e-07
-1.91456e-06
-1.93699e-07
-1.84353e-06
-2.05279e-07
-1.76877e-06
-2.16485e-07
-1.69042e-06
-2.27289e-07
-1.60862e-06
-2.37667e-07
-1.52351e-06
-2.47571e-07
-1.43528e-06
-2.56953e-07
-1.3441e-06
-2.65813e-07
-1.25013e-06
-2.74159e-07
-1.15356e-06
-2.81929e-07
-1.0546e-06
-2.89113e-07
-9.53399e-07
-2.95783e-07
-8.50167e-07
-3.01871e-07
-7.45092e-07
-3.07398e-07
-6.38337e-07
-3.12398e-07
-5.30115e-07
-3.16786e-07
-4.20548e-07
-3.20774e-07
-3.09814e-07
-3.24123e-07
-1.98083e-07
-3.27113e-07
-8.51658e-08
-3.29759e-07
2.79834e-08
-3.31421e-07
1.40191e-07
-3.31874e-07
2.51074e-07
-3.30414e-07
3.59607e-07
-3.26964e-07
4.64735e-07
-3.20189e-07
5.65349e-07
-3.06989e-07
6.60654e-07
-2.81663e-07
-2.39187e-07
7.56924e-07
-3.48428e-08
1.73358e-08
-7.03147e-08
5.12096e-08
-1.04379e-07
7.51415e-08
-1.3731e-07
9.50971e-08
-1.69566e-07
1.12289e-07
-2.01628e-07
1.2703e-07
-2.33962e-07
1.39419e-07
-2.66925e-07
1.49567e-07
-3.00696e-07
1.57666e-07
-3.35296e-07
1.6396e-07
-3.70646e-07
1.68708e-07
-4.06616e-07
1.72148e-07
-4.43064e-07
1.74488e-07
-4.79848e-07
1.75903e-07
-5.16839e-07
1.76539e-07
-5.5392e-07
1.76517e-07
-5.90986e-07
1.7594e-07
-6.27945e-07
1.74896e-07
-6.64715e-07
1.73461e-07
-7.01226e-07
1.71701e-07
-7.37418e-07
1.69673e-07
-7.7324e-07
1.67427e-07
-8.08651e-07
1.65008e-07
-8.43614e-07
1.62456e-07
-8.78101e-07
1.59805e-07
-9.12091e-07
1.57086e-07
-9.45566e-07
1.54325e-07
-9.78514e-07
1.51544e-07
-1.01093e-06
1.48764e-07
-1.0428e-06
1.46001e-07
-1.07414e-06
1.43267e-07
-1.10494e-06
1.40575e-07
-1.1352e-06
1.37932e-07
-1.16493e-06
1.35345e-07
-1.19415e-06
1.32817e-07
-1.22285e-06
1.30351e-07
-1.25104e-06
1.27946e-07
-1.27874e-06
1.25601e-07
-1.30595e-06
1.23314e-07
-1.33268e-06
1.21078e-07
-1.35894e-06
1.18889e-07
-1.38473e-06
1.1674e-07
-1.41005e-06
1.14622e-07
-1.43492e-06
1.12526e-07
-1.45932e-06
1.10442e-07
-1.48326e-06
1.0836e-07
-1.50674e-06
1.06267e-07
-1.52974e-06
1.04153e-07
-1.55227e-06
1.02005e-07
-1.5743e-06
9.98096e-08
-1.59582e-06
9.75554e-08
-1.61682e-06
9.52294e-08
-1.63728e-06
9.28193e-08
-1.65717e-06
9.03129e-08
-1.67647e-06
8.76988e-08
-1.69516e-06
8.49661e-08
-1.71319e-06
8.21049e-08
-1.73055e-06
7.9106e-08
-1.74719e-06
7.59619e-08
-1.76309e-06
7.26661e-08
-1.7782e-06
6.92139e-08
-1.79249e-06
6.56022e-08
-1.80593e-06
6.18298e-08
-1.81847e-06
5.78978e-08
-1.83008e-06
5.38093e-08
-1.84073e-06
4.95698e-08
-1.85038e-06
4.51874e-08
-1.859e-06
4.06727e-08
-1.86657e-06
3.60389e-08
-1.87306e-06
3.13019e-08
-1.87846e-06
2.64805e-08
-1.88276e-06
2.1596e-08
-1.88593e-06
1.66723e-08
-1.88799e-06
1.17362e-08
-1.88894e-06
6.8164e-09
-1.8888e-06
1.94417e-09
-1.88757e-06
-2.84764e-09
-1.8853e-06
-7.52072e-09
-1.88202e-06
-1.20262e-08
-1.87781e-06
-1.63151e-08
-1.87271e-06
-2.03421e-08
-1.86681e-06
-2.40643e-08
-1.86019e-06
-2.744e-08
-1.85294e-06
-3.04289e-08
-1.84516e-06
-3.29931e-08
-1.83697e-06
-3.5097e-08
-1.82846e-06
-3.6708e-08
-1.81976e-06
-3.7797e-08
-1.81099e-06
-3.83385e-08
-1.80228e-06
-3.83116e-08
-1.79377e-06
-3.76997e-08
-1.78558e-06
-3.64908e-08
-1.77784e-06
-3.46777e-08
-1.77069e-06
-3.22571e-08
-1.76426e-06
-2.92319e-08
-1.75866e-06
-2.56128e-08
-1.75403e-06
-2.14152e-08
-1.75048e-06
-1.66544e-08
-1.74813e-06
-1.13582e-08
-1.74707e-06
-5.57199e-09
-1.74741e-06
6.52815e-10
-1.74923e-06
7.26121e-09
-1.75258e-06
1.41949e-08
-1.75753e-06
2.1392e-08
-1.76411e-06
2.87868e-08
-1.77235e-06
3.63103e-08
-1.78225e-06
4.38907e-08
-1.7938e-06
5.14535e-08