/*--------------------------------*- C++ -*----------------------------------*\
| =========                 |                                                 |
| \\      /  F ield         | OpenFOAM: The Open Source CFD Toolbox           |
|  \\    /   O peration     | Version:  plus                                  |
|   \\  /    A nd           | Website:  www.openfoam.com                      |
|    \\/     M anipulation  |                                                 |
\*---------------------------------------------------------------------------*/
FoamFile
{
    version     2.0;
    format      ascii;
    class       volVectorField;
    location    "100";
    object      U;
}
// * * * * * * * * * * * * * * * * * * * * * * * * * * * * * * * * * * * * * //

dimensions      [0 1 -1 0 0 0 0];


internalField   nonuniform List<vector> 
12225
(
(9.80107 -1.3116 0)
(9.7038 -0.821239 0)
(9.51745 -0.551099 0)
(9.31553 -0.379984 0)
(9.12621 -0.266651 0)
(8.95135 -0.189597 0)
(8.78915 -0.135918 0)
(8.63868 -0.0977737 0)
(8.49934 -0.070254 0)
(8.37039 -0.0501615 0)
(8.25101 -0.0353493 0)
(8.14046 -0.0243447 0)
(8.03805 -0.0161214 0)
(7.94319 -0.00995114 0)
(7.8553 -0.00529577 0)
(7.7736 -0.00164383 0)
(7.69394 0.00254014 0)
(7.63716 -0.0294033 0)
(10.0703 0.412453 0)
(10.0578 0.418437 0)
(10.0223 0.347384 0)
(9.97338 0.285009 0)
(9.92341 0.234613 0)
(9.87303 0.194285 0)
(9.82127 0.16262 0)
(9.76841 0.137957 0)
(9.7152 0.118695 0)
(9.66223 0.103536 0)
(9.60996 0.0914933 0)
(9.55874 0.081823 0)
(9.50887 0.073965 0)
(9.46061 0.0675 0)
(9.41414 0.0621437 0)
(9.36975 0.0578787 0)
(9.32884 0.0559097 0)
(9.29566 0.0652638 0)
(9.99418 0.0581313 0)
(10.0061 0.0263224 0)
(10.0218 -0.00248288 0)
(10.028 -0.00721805 0)
(10.0303 -0.00261874 0)
(10.0304 0.00408111 0)
(10.0279 0.0110044 0)
(10.0231 0.0174846 0)
(10.0165 0.0231762 0)
(10.0086 0.0279569 0)
(9.99984 0.031845 0)
(9.99036 0.0349194 0)
(9.98046 0.0372739 0)
(9.97035 0.0390024 0)
(9.96029 0.0402142 0)
(9.95069 0.041098 0)
(9.94286 0.0417438 0)
(9.93641 0.0388869 0)
(9.99769 0.0152867 0)
(10.0096 0.0338366 0)
(10.0292 0.0427937 0)
(10.0406 0.052264 0)
(10.0482 0.0594454 0)
(10.0546 0.0633139 0)
(10.0598 0.0649459 0)
(10.0638 0.0653075 0)
(10.0669 0.0649158 0)
(10.0694 0.0640549 0)
(10.0715 0.062902 0)
(10.0733 0.0615654 0)
(10.0749 0.0601018 0)
(10.0763 0.0585327 0)
(10.0778 0.0568572 0)
(10.0797 0.0550267 0)
(10.0825 0.0526312 0)
(10.0856 0.0475382 0)
(10.0012 0.0168339 0)
(10.0128 0.040661 0)
(10.0295 0.0479085 0)
(10.0404 0.0509259 0)
(10.0484 0.0527912 0)
(10.0559 0.0534162 0)
(10.0628 0.0533276 0)
(10.0691 0.0530017 0)
(10.0747 0.0526054 0)
(10.08 0.052161 0)
(10.085 0.0516564 0)
(10.0898 0.05107 0)
(10.0944 0.0503708 0)
(10.099 0.0495165 0)
(10.1036 0.0484422 0)
(10.1084 0.0470059 0)
(10.1136 0.0447892 0)
(10.1187 0.0407258 0)
(10.0021 0.01817 0)
(10.0124 0.0376344 0)
(10.0269 0.0437147 0)
(10.0376 0.04617 0)
(10.046 0.0483268 0)
(10.0539 0.0497947 0)
(10.0614 0.0506073 0)
(10.0683 0.0510352 0)
(10.0747 0.0512088 0)
(10.0808 0.0511612 0)
(10.0867 0.050902 0)
(10.0923 0.0504334 0)
(10.0979 0.0497453 0)
(10.1033 0.0488079 0)
(10.1088 0.047557 0)
(10.1144 0.0458523 0)
(10.12 0.0433884 0)
(10.1254 0.0396883 0)
(10.002 0.0166315 0)
(10.011 0.0327247 0)
(10.0238 0.0394219 0)
(10.0342 0.0427204 0)
(10.0428 0.0453605 0)
(10.0509 0.0471658 0)
(10.0585 0.0481701 0)
(10.0656 0.0486547 0)
(10.0723 0.0487967 0)
(10.0787 0.0486677 0)
(10.0848 0.0482993 0)
(10.0908 0.0477047 0)
(10.0966 0.0468775 0)
(10.1024 0.0457873 0)
(10.1081 0.044369 0)
(10.1138 0.0425011 0)
(10.1193 0.039981 0)
(10.1245 0.0366153 0)
(10.0018 0.0146965 0)
(10.0095 0.0286242 0)
(10.0207 0.0357924 0)
(10.0308 0.0396036 0)
(10.0393 0.042353 0)
(10.0473 0.0441995 0)
(10.0549 0.0452429 0)
(10.0621 0.0457451 0)
(10.0689 0.045884 0)
(10.0754 0.045738 0)
(10.0816 0.0453412 0)
(10.0877 0.0447059 0)
(10.0937 0.0438249 0)
(10.0995 0.0426682 0)
(10.1052 0.0411788 0)
(10.1107 0.0392657 0)
(10.1161 0.0368104 0)
(10.1211 0.0337691 0)
(10.0016 0.0129776 0)
(10.0082 0.0251509 0)
(10.018 0.0322921 0)
(10.0273 0.0363079 0)
(10.0356 0.0390685 0)
(10.0435 0.0409313 0)
(10.051 0.0420268 0)
(10.0581 0.0425739 0)
(10.0649 0.0427346 0)
(10.0714 0.0425891 0)
(10.0777 0.0421742 0)
(10.0838 0.0415045 0)
(10.0898 0.0405759 0)
(10.0956 0.0393653 0)
(10.1012 0.0378305 0)
(10.1066 0.0359132 0)
(10.1117 0.0335559 0)
(10.1165 0.0307868 0)
(10.0015 0.0114097 0)
(10.0071 0.0220164 0)
(10.0155 0.0288367 0)
(10.0241 0.0329053 0)
(10.032 0.0356554 0)
(10.0396 0.0375186 0)
(10.0469 0.0386453 0)
(10.054 0.0392191 0)
(10.0607 0.0393875 0)
(10.0672 0.0392324 0)
(10.0734 0.0387943 0)
(10.0795 0.0380914 0)
(10.0854 0.0371248 0)
(10.091 0.0358804 0)
(10.0965 0.0343328 0)
(10.1017 0.0324514 0)
(10.1066 0.0302188 0)
(10.1113 0.0276947 0)
(10.0013 0.00994972 0)
(10.0061 0.0191576 0)
(10.0134 0.0254996 0)
(10.0212 0.0294964 0)
(10.0287 0.0321878 0)
(10.036 0.0340078 0)
(10.043 0.0351232 0)
(10.0499 0.0356932 0)
(10.0565 0.0358506 0)
(10.0628 0.0356759 0)
(10.069 0.0352124 0)
(10.0749 0.0344816 0)
(10.0807 0.03349 0)
(10.0862 0.0322334 0)
(10.0915 0.0307009 0)
(10.0965 0.0288834 0)
(10.1012 0.0267881 0)
(10.1057 0.0244833 0)
(10.0011 0.00868247 0)
(10.0053 0.0167356 0)
(10.0117 0.0225557 0)
(10.0189 0.026386 0)
(10.0259 0.028973 0)
(10.0328 0.0307151 0)
(10.0396 0.0317861 0)
(10.0463 0.0323283 0)
(10.0527 0.0324606 0)
(10.0589 0.0322603 0)
(10.0649 0.0317718 0)
(10.0707 0.0310195 0)
(10.0763 0.0300153 0)
(10.0817 0.0287629 0)
(10.0868 0.027263 0)
(10.0916 0.0255205 0)
(10.0961 0.0235553 0)
(10.1004 0.0214369 0)
(10.001 0.00750619 0)
(10.0046 0.0145008 0)
(10.0103 0.0197413 0)
(10.0168 0.0233201 0)
(10.0234 0.0257577 0)
(10.03 0.0273928 0)
(10.0365 0.0283946 0)
(10.0429 0.0288909 0)
(10.0491 0.0289873 0)
(10.0551 0.0287564 0)
(10.061 0.0282428 0)
(10.0666 0.0274737 0)
(10.072 0.0264655 0)
(10.0772 0.0252288 0)
(10.0821 0.0237732 0)
(10.0868 0.022113 0)
(10.0911 0.020275 0)
(10.0953 0.0183286 0)
(10.0009 0.00627684 0)
(10.004 0.0121481 0)
(10.0089 0.0166855 0)
(10.0148 0.0198884 0)
(10.0209 0.0220917 0)
(10.0271 0.023561 0)
(10.0333 0.024449 0)
(10.0394 0.0248674 0)
(10.0453 0.0249067 0)
(10.0511 0.0246328 0)
(10.0567 0.0240892 0)
(10.0622 0.0233051 0)
(10.0674 0.0223009 0)
(10.0723 0.021093 0)
(10.0771 0.0196978 0)
(10.0815 0.0181359 0)
(10.0857 0.0164371 0)
(10.0896 0.0146635 0)
(10.0008 0.00499331 0)
(10.0034 0.00967788 0)
(10.0077 0.0133917 0)
(10.0129 0.0160841 0)
(10.0185 0.0179493 0)
(10.0243 0.0191772 0)
(10.0301 0.0198943 0)
(10.0358 0.0201929 0)
(10.0415 0.0201473 0)
(10.047 0.0198144 0)
(10.0524 0.0192347 0)
(10.0576 0.0184376 0)
(10.0625 0.0174463 0)
(10.0673 0.0162808 0)
(10.0718 0.0149615 0)
(10.076 0.0135115 0)
(10.0799 0.0119599 0)
(10.0837 0.0103587 0)
(10.0006 0.00365743 0)
(10.0029 0.0070941 0)
(10.0066 0.00986645 0)
(10.0112 0.0119072 0)
(10.0163 0.0133144 0)
(10.0216 0.0142096 0)
(10.027 0.0146854 0)
(10.0324 0.0148121 0)
(10.0378 0.0146464 0)
(10.043 0.0142339 0)
(10.0481 0.0136096 0)
(10.053 0.0128007 0)
(10.0577 0.0118302 0)
(10.0622 0.010719 0)
(10.0665 0.009488 0)
(10.0705 0.00815938 0)
(10.0742 0.00675854 0)
(10.0778 0.00532766 0)
(10.0006 0.00226335 0)
(10.0025 0.00438132 0)
(10.0058 0.00609362 0)
(10.0099 0.00733897 0)
(10.0145 0.00815767 0)
(10.0194 0.00861508 0)
(10.0244 0.00876785 0)
(10.0294 0.00866132 0)
(10.0345 0.00833333 0)
(10.0394 0.00781562 0)
(10.0442 0.00713434 0)
(10.0488 0.00631144 0)
(10.0533 0.00536631 0)
(10.0575 0.00431722 0)
(10.0615 0.00318217 0)
(10.0653 0.00197922 0)
(10.0689 0.000728403 0)
(10.0723 -0.000537083 0)
(10.0005 0.000780581 0)
(10.0022 0.0014785 0)
(10.0051 0.00199893 0)
(10.0089 0.00230046 0)
(10.0131 0.00239236 0)
(10.0177 0.00229696 0)
(10.0224 0.00203553 0)
(10.0271 0.00162659 0)
(10.0319 0.00108704 0)
(10.0365 0.000432252 0)
(10.041 -0.000323914 0)
(10.0454 -0.00116869 0)
(10.0496 -0.00208984 0)
(10.0536 -0.0030752 0)
(10.0575 -0.00411246 0)
(10.0611 -0.00518886 0)
(10.0645 -0.00629091 0)
(10.0678 -0.00739384 0)
(10.0005 -0.000866464 0)
(10.0021 -0.00175594 0)
(10.0049 -0.00259487 0)
(10.0084 -0.00339329 0)
(10.0125 -0.00416115 0)
(10.0169 -0.00491615 0)
(10.0214 -0.00567466 0)
(10.026 -0.00644751 0)
(10.0305 -0.00724124 0)
(10.035 -0.00805984 0)
(10.0393 -0.00890521 0)
(10.0435 -0.00977739 0)
(10.0475 -0.0106747 0)
(10.0514 -0.0115943 0)
(10.055 -0.0125321 0)
(10.0584 -0.0134834 0)
(10.0617 -0.0144417 0)
(10.0649 -0.0153894 0)
(10.0005 -0.00243317 0)
(10.0022 -0.0048391 0)
(10.0052 -0.00697533 0)
(10.0089 -0.00880415 0)
(10.0131 -0.010358 0)
(10.0175 -0.0117047 0)
(10.0221 -0.0129012 0)
(10.0267 -0.0139866 0)
(10.0312 -0.0149907 0)
(10.0357 -0.0159372 0)
(10.04 -0.0168441 0)
(10.0441 -0.017724 0)
(10.048 -0.0185853 0)
(10.0518 -0.0194334 0)
(10.0553 -0.0202717 0)
(10.0587 -0.0211016 0)
(10.0619 -0.0219222 0)
(10.065 -0.0227226 0)
(10.0005 -0.003778 0)
(10.0025 -0.0075078 0)
(10.0057 -0.0107483 0)
(10.0098 -0.013388 0)
(10.0143 -0.0155172 0)
(10.019 -0.0172827 0)
(10.0237 -0.0187811 0)
(10.0285 -0.0200712 0)
(10.0331 -0.021201 0)
(10.0376 -0.0222118 0)
(10.0419 -0.0231353 0)
(10.0461 -0.0239946 0)
(10.05 -0.0248061 0)
(10.0537 -0.0255821 0)
(10.0573 -0.0263316 0)
(10.0606 -0.0270611 0)
(10.0638 -0.0277745 0)
(10.0668 -0.0284665 0)
(10.0006 -0.00506457 0)
(10.0028 -0.0101461 0)
(10.0065 -0.0144624 0)
(10.0112 -0.017777 0)
(10.0161 -0.0203294 0)
(10.0212 -0.022392 0)
(10.0261 -0.0240971 0)
(10.031 -0.0255177 0)
(10.0358 -0.0267186 0)
(10.0404 -0.0277549 0)
(10.0448 -0.0286665 0)
(10.049 -0.0294824 0)
(10.053 -0.0302248 0)
(10.0567 -0.0309108 0)
(10.0603 -0.0315543 0)
(10.0636 -0.0321661 0)
(10.0667 -0.032754 0)
(10.0697 -0.0333164 0)
(10.0006 -0.0062716 0)
(10.0031 -0.0128358 0)
(10.0075 -0.0182108 0)
(10.013 -0.022052 0)
(10.0185 -0.0249156 0)
(10.0238 -0.0271918 0)
(10.0291 -0.0290115 0)
(10.0342 -0.0304708 0)
(10.0391 -0.0316703 0)
(10.0438 -0.032685 0)
(10.0483 -0.0335619 0)
(10.0525 -0.0343325 0)
(10.0565 -0.0350202 0)
(10.0602 -0.0356437 0)
(10.0638 -0.0362183 0)
(10.0671 -0.0367576 0)
(10.0702 -0.0372745 0)
(10.0731 -0.0377789 0)
(10.0005 -0.00737988 0)
(10.0032 -0.0158016 0)
(10.0087 -0.0219941 0)
(10.015 -0.0259879 0)
(10.021 -0.0290563 0)
(10.0267 -0.0315717 0)
(10.0322 -0.0335253 0)
(10.0374 -0.0350059 0)
(10.0424 -0.0361506 0)
(10.0472 -0.0370593 0)
(10.0516 -0.0377942 0)
(10.0558 -0.0383987 0)
(10.0598 -0.0389056 0)
(10.0635 -0.0393406 0)
(10.067 -0.0397237 0)
(10.0702 -0.0400722 0)
(10.0732 -0.0404018 0)
(10.076 -0.0407214 0)
(10.0001 -0.00810205 0)
(10.0031 -0.0198834 0)
(10.01 -0.0266514 0)
(10.0171 -0.0299739 0)
(10.0232 -0.0326779 0)
(10.029 -0.0351487 0)
(10.0347 -0.0372063 0)
(10.0401 -0.0388798 0)
(10.0452 -0.0402604 0)
(10.05 -0.0414028 0)
(10.0544 -0.0423401 0)
(10.0586 -0.043102 0)
(10.0624 -0.0437164 0)
(10.066 -0.044208 0)
(10.0694 -0.0445989 0)
(10.0725 -0.0449122 0)
(10.0753 -0.0451792 0)
(10.078 -0.0454553 0)
(9.99854 -0.0057207 0)
(10.0014 -0.0235199 0)
(10.0107 -0.0324399 0)
(10.0188 -0.0357593 0)
(10.0248 -0.0376044 0)
(10.0304 -0.0386935 0)
(10.0359 -0.0392814 0)
(10.0412 -0.0396829 0)
(10.0461 -0.0400624 0)
(10.0506 -0.0404568 0)
(10.0549 -0.040862 0)
(10.0589 -0.0412685 0)
(10.0626 -0.0416652 0)
(10.0659 -0.0420405 0)
(10.0691 -0.0423829 0)
(10.0719 -0.0426852 0)
(10.0744 -0.04295 0)
(10.0765 -0.0432034 0)
(9.99327 0.000475031 0)
(9.99444 -0.0182266 0)
(10.0077 -0.0310522 0)
(10.0181 -0.041819 0)
(10.0251 -0.0503168 0)
(10.0311 -0.0557321 0)
(10.0364 -0.0587523 0)
(10.0411 -0.0602853 0)
(10.0452 -0.0608964 0)
(10.0488 -0.0609101 0)
(10.052 -0.0605406 0)
(10.0549 -0.0599376 0)
(10.0575 -0.0592002 0)
(10.0598 -0.0583884 0)
(10.0618 -0.057533 0)
(10.0635 -0.0566437 0)
(10.0649 -0.0557255 0)
(10.0662 -0.0548361 0)
(9.98682 -0.0215238 0)
(9.98526 6.83886e-05 0)
(9.99725 0.0230321 0)
(10.0064 0.0273997 0)
(10.0132 0.0225199 0)
(10.019 0.0153243 0)
(10.0234 0.00781585 0)
(10.0263 0.000564913 0)
(10.028 -0.00610612 0)
(10.0286 -0.0120301 0)
(10.0284 -0.017175 0)
(10.0276 -0.0215841 0)
(10.0261 -0.0253275 0)
(10.0242 -0.0284772 0)
(10.0219 -0.0310932 0)
(10.0191 -0.0332106 0)
(10.016 -0.0348214 0)
(10.0121 -0.0358577 0)
(10.0405 -0.330304 0)
(10.0411 -0.356852 0)
(10.0272 -0.306892 0)
(10.0048 -0.259698 0)
(9.98359 -0.221035 0)
(9.96357 -0.188974 0)
(9.94299 -0.162782 0)
(9.92125 -0.141676 0)
(9.89851 -0.124693 0)
(9.87499 -0.110962 0)
(9.85091 -0.0997862 0)
(9.82643 -0.0906302 0)
(9.80174 -0.0830755 0)
(9.77702 -0.0767914 0)
(9.75241 -0.0715097 0)
(9.72808 -0.0669932 0)
(9.70419 -0.0629689 0)
(9.68016 -0.0588664 0)
(9.91215 1.02634 0)
(9.89899 0.659759 0)
(9.80185 0.458286 0)
(9.67958 0.327766 0)
(9.55613 0.237938 0)
(9.43674 0.174638 0)
(9.32149 0.128996 0)
(9.21087 0.0954295 0)
(9.10548 0.0703826 0)
(9.0056 0.0514918 0)
(8.91121 0.0371215 0)
(8.82217 0.0261114 0)
(8.73829 0.0176259 0)
(8.65934 0.0110563 0)
(8.58508 0.00595666 0)
(8.51532 0.00200636 0)
(8.44996 -0.000980214 0)
(8.38718 -0.00296522 0)
(0.018216 -0.0485582 -7.13151e-19)
(0.0406454 -0.0416427 4.97629e-19)
(0.0544353 -0.0227151 0)
(0.0550521 -0.000613666 0)
(0.0416306 0.0207745 0)
(0.018214 0.0386661 -4.0819e-19)
(-0.0162107 0.0513489 0)
(-0.0534677 0.0565556 0)
(-0.0940751 0.0584867 0)
(-0.136807 0.0590959 0)
(-0.180907 0.0590961 2.0232e-19)
(-0.225936 0.0587374 0)
(-0.271575 0.0581152 0)
(-0.31756 0.0572792 0)
(-0.363664 0.0562692 0)
(-0.409691 0.0551229 1.25277e-19)
(-0.455431 0.0538796 0)
(-0.500816 0.0526034 0)
(-0.545772 0.0513174 0)
(-0.590218 0.0500245 0)
(-0.634091 0.0487307 0)
(-0.677344 0.0474434 0)
(-0.719938 0.0461697 0)
(-0.761846 0.0449161 8.06472e-20)
(-0.803047 0.0436882 -7.7543e-20)
(-0.843533 0.0424906 7.47393e-20)
(-0.883297 0.0413272 7.21958e-20)
(-0.922341 0.0402007 0)
(-0.960672 0.0391133 0)
(-0.998299 0.0380661 -6.58142e-20)
(-1.03524 0.0370597 -6.40221e-20)
(-1.0715 0.0360942 0)
(-1.10711 0.0351692 0)
(-1.14209 0.0342835 -5.94012e-20)
(-1.17644 0.0334356 0)
(-1.21021 0.0326239 0)
(-1.24339 0.0318461 5.56525e-20)
(-1.27602 0.0311 0)
(-1.30812 0.0303827 5.35157e-20)
(-1.33969 0.0296915 1.05071e-19)
(-1.37075 0.0290233 0)
(-1.40132 0.0283749 0)
(-1.43141 0.0277429 0)
(-1.46102 0.027124 0)
(-1.49017 0.0265147 0)
(-1.51885 0.0259113 9.51752e-20)
(-1.54705 0.0253105 9.37682e-20)
(-1.57479 0.0247084 9.24148e-20)
(-1.60205 0.0241017 0)
(-1.62882 0.0234868 -8.98504e-20)
(-1.65509 0.0228602 0)
(-1.68084 0.0222187 8.74478e-20)
(-1.70604 0.0215589 8.62977e-20)
(-1.73069 0.0208778 0)
(-1.75474 0.0201725 0)
(-1.77818 0.0194403 0)
(-1.80096 0.0186786 8.19596e-20)
(-1.82305 0.0178852 0)
(-1.84442 0.0170582 0)
(-1.86503 0.0161959 0)
(-1.88484 0.015297 0)
(-1.90379 0.0143608 0)
(-1.92186 0.0133866 0)
(-1.939 0.0123743 0)
(-1.95516 0.0113245 0)
(-1.9703 0.0102381 -7.29015e-20)
(-1.98439 0.0091165 0)
(-1.99738 0.00796169 0)
(-2.00923 0.00677633 6.98202e-20)
(-2.01992 0.00556363 6.87621e-20)
(-2.02942 0.00432745 0)
(-2.03769 0.00307244 -6.6584e-20)
(-2.04473 0.00180404 6.54592e-20)
(-2.05052 0.000528692 0)
(-2.05504 -0.000745846 -6.31273e-20)
(-2.05831 -0.00200984 0)
(-2.06034 -0.00325062 0)
(-2.06113 -0.00445167 5.93828e-20)
(-2.06072 -0.00560629 0)
(-2.05916 -0.00672117 -5.66865e-20)
(-2.05647 -0.00778807 0)
(-2.05273 -0.00878775 5.3861e-20)
(-2.048 -0.00970814 5.24012e-20)
(-2.04237 -0.0105385 5.09123e-20)
(-2.03595 -0.0112688 9.87921e-20)
(-2.02883 -0.01189 -9.57099e-20)
(-2.02113 -0.0123938 0)
(-2.01299 -0.0127724 0)
(-2.00454 -0.0130187 0)
(-1.99593 -0.0131262 -8.30054e-20)
(-1.98729 -0.0130902 -7.97738e-20)
(-1.97881 -0.0129079 7.65385e-20)
(-1.97062 -0.0125796 0)
(-1.96291 -0.0121094 -7.00993e-20)
(-1.95584 -0.0115114 -6.69169e-20)
(-1.94958 -0.0107902 -6.37706e-20)
(-1.94429 -0.00993849 0)
(-1.94016 -0.00895525 0)
(-1.93731 -0.00783512 0)
(-1.93593 -0.00658753 -5.16554e-20)
(-1.93614 -0.00524163 0)
(-1.93806 -0.00381384 0)
(-1.9418 -0.002318 4.33269e-20)
(-1.94745 -0.000768875 0)
(-1.95508 0.00081809 0)
(-1.96477 0.00242718 3.59487e-20)
(-1.97654 0.00404267 0)
(-1.99042 0.00564907 0)
(-2.0064 0.00723138 -2.97138e-20)
(-2.02447 0.00877529 -2.79165e-20)
(-2.04457 0.0102674 0)
(-2.06665 0.0116952 2.47711e-20)
(-2.09061 0.0130472 0)
(-2.11635 0.014313 -2.22479e-20)
(-2.14376 0.015483 0)
(-2.17267 0.0165489 -2.03652e-20)
(-2.20294 0.0175035 -1.96657e-20)
(-2.23439 0.0183407 0)
(-2.26682 0.0190557 0)
(-2.30005 0.0196448 0)
(-2.33385 0.0201055 0)
(-2.368 0.0204364 0)
(-2.40226 0.0206372 0)
(-2.43639 0.0207083 0)
(-2.47013 0.0206509 -1.93788e-20)
(-2.50323 0.0204661 1.98928e-20)
(-2.53541 0.0201559 0)
(-2.5664 0.0197229 0)
(-2.59595 0.019171 0)
(-2.62379 0.0185057 0)
(-2.64968 0.0177344 4.7407e-20)
(-2.67338 0.0168649 0)
(-2.69468 0.0159035 -5.13308e-20)
(-2.71338 0.0148539 5.33903e-20)
(-2.72927 0.0137146 0)
(-2.74213 0.012467 0)
(-2.75172 0.0111231 0)
(-2.75787 0.00974115 -6.12533e-20)
(-2.76043 0.00832193 -6.28908e-20)
(-2.75925 0.00684176 0)
(-2.75421 0.005304 -6.55581e-20)
(-2.74518 0.00371188 -6.65111e-20)
(-2.73206 0.00206829 6.71559e-20)
(-2.71478 0.000375704 0)
(-2.69325 -0.00136379 0)
(-2.66744 -0.00314728 6.67906e-20)
(-2.6373 -0.00497099 0)
(-2.60282 -0.00683057 0)
(-2.56399 -0.00872108 0)
(-2.52084 -0.0106376 0)
(-2.4734 -0.0125755 -5.54584e-20)
(-2.42171 -0.0145283 -5.10619e-20)
(-2.36584 -0.0164881 0)
(-2.30587 -0.0184469 -3.96009e-20)
(-2.24189 -0.0203963 0)
(-2.17402 -0.0223286 0)
(-2.10238 -0.0242375 -1.45413e-20)
(-2.0271 -0.0261158 0)
(-1.94835 -0.0279576 8.51527e-21)
(-1.86626 -0.0297614 0)
(-1.78102 -0.0315281 0)
(-1.69278 -0.0332571 5.50775e-20)
(-1.60173 -0.0349547 0)
(-1.50805 -0.036635 9.60521e-20)
(-1.4119 -0.0383034 0)
(-1.31347 -0.0399739 0)
(-1.21293 -0.0416582 0)
(-1.11047 -0.0433653 -2.10996e-19)
(-1.00626 -0.0451188 0)
(-0.900467 -0.0468984 2.91629e-19)
(-0.793291 -0.0487567 0)
(-0.684868 -0.0505979 0)
(-0.575296 -0.052579 0)
(-0.465369 -0.0541827 0)
(-0.353914 -0.0554989 0)
(-0.24355 -0.0572921 0)
(-0.133041 -0.0581506 0)
(-0.0178806 -0.0556833 -1.71027e-18)
(0.0961684 -0.0483589 0)
(0.143613 -0.0281369 0)
(0.00266656 -0.0783245 1.52588e-18)
(0.00156009 -0.0423701 -7.47315e-19)
(-0.0115008 -0.00135919 0)
(-0.0308125 0.0351717 2.36393e-19)
(-0.0541546 0.0650628 0)
(-0.0808038 0.0881274 9.26111e-20)
(-0.110557 0.104521 -1.71548e-19)
(-0.143041 0.115237 -1.6014e-19)
(-0.178115 0.122112 0)
(-0.215333 0.126442 -1.40237e-19)
(-0.254163 0.129061 -6.58935e-20)
(-0.294158 0.130463 0)
(-0.334964 0.130943 0)
(-0.376311 0.130689 0)
(-0.417978 0.129843 0)
(-0.459787 0.128519 -4.97822e-20)
(-0.501584 0.126824 0)
(-0.543239 0.124847 9.05324e-20)
(-0.584634 0.122648 0)
(-0.625673 0.120275 0)
(-0.666279 0.117771 -8.02563e-20)
(-0.706393 0.115172 0)
(-0.745966 0.11251 7.48478e-20)
(-0.784961 0.109814 -3.63586e-20)
(-0.823351 0.107106 3.52708e-20)
(-0.861116 0.104408 -3.42691e-20)
(-0.898246 0.101737 -3.33445e-20)
(-0.934734 0.0991066 0)
(-0.970579 0.0965286 0)
(-1.00578 0.0940119 3.09582e-20)
(-1.04036 0.091563 -3.00547e-20)
(-1.07431 0.0891865 0)
(-1.10765 0.0868855 0)
(-1.1404 0.0846612 2.84673e-20)
(-1.17256 0.0825137 0)
(-1.20416 0.0804416 0)
(-1.23522 0.0784426 -2.69706e-20)
(-1.26573 0.0765136 0)
(-1.29573 0.0746504 2.59066e-20)
(-1.32523 0.0728484 -5.14084e-20)
(-1.35423 0.0711021 0)
(-1.38275 0.0694057 0)
(-1.4108 0.0677531 -9.80641e-20)
(-1.43839 0.0661376 -9.67325e-20)
(-1.46552 0.0645525 -9.54525e-20)
(-1.49218 0.0629909 4.69285e-20)
(-1.51839 0.0614457 -4.66915e-20)
(-1.54414 0.0599099 -1.37983e-19)
(-1.56942 0.0583765 9.07508e-20)
(-1.59422 0.0568387 4.49969e-20)
(-1.61854 0.0552897 0)
(-1.64235 0.0537232 -4.39322e-20)
(-1.66563 0.0521331 4.31048e-20)
(-1.68837 0.0505136 0)
(-1.71055 0.0488595 0)
(-1.73212 0.0471661 0)
(-1.75307 0.0454293 -4.13956e-20)
(-1.77337 0.0436454 0)
(-1.79297 0.0418116 8.05629e-20)
(-1.81185 0.039926 0)
(-1.82997 0.0379871 7.85845e-20)
(-1.84728 0.0359947 0)
(-1.86375 0.0339492 -7.65717e-20)
(-1.87935 0.031852 0)
(-1.89403 0.0297056 7.45031e-20)
(-1.90775 0.0275133 -3.66767e-20)
(-1.92049 0.0252797 0)
(-1.9322 0.0230102 -7.12518e-20)
(-1.94286 0.0207114 -3.50631e-20)
(-1.95243 0.0183908 -3.44682e-20)
(-1.9609 0.0160571 0)
(-1.96824 0.0137199 -3.33158e-20)
(-1.97444 0.0113897 -3.25887e-20)
(-1.97949 0.00907819 0)
(-1.98339 0.00679758 3.12511e-20)
(-1.98615 0.00456102 -6.13273e-20)
(-1.98778 0.00238209 0)
(-1.98829 0.000272468 -2.91065e-20)
(-1.98772 -0.00175247 0)
(-1.9861 -0.00367266 8.30474e-20)
(-1.98351 -0.00546925 0)
(-1.98 -0.00712434 -7.82918e-20)
(-1.97565 -0.00862073 -2.51411e-20)
(-1.97054 -0.0099427 2.47464e-20)
(-1.96477 -0.011076 4.78352e-20)
(-1.95844 -0.0120081 -4.61529e-20)
(-1.95167 -0.0127279 0)
(-1.94458 -0.0132259 0)
(-1.93729 -0.0134944 0)
(-1.92995 -0.0135274 1.15693e-19)
(-1.92269 -0.0133203 3.64758e-20)
(-1.91566 -0.0128708 -3.47408e-20)
(-1.909 -0.0121782 0)
(-1.90287 -0.0112441 -3.22995e-20)
(-1.8974 -0.0100713 2.96494e-20)
(-1.89276 -0.00866482 2.80057e-20)
(-1.88909 -0.00703257 0)
(-1.88652 -0.00519067 0)
(-1.88518 -0.00316224 0)
(-1.88523 -0.000964633 2.17674e-20)
(-1.88676 0.00137844 0)
(-1.8899 0.00384326 -3.83451e-20)
(-1.89472 0.00640564 -5.31107e-20)
(-1.90131 0.00904015 3.2885e-20)
(-1.90973 0.0117202 0)
(-1.92002 0.0144185 1.40505e-20)
(-1.93222 0.0171072 0)
(-1.94633 0.0197584 2.34265e-20)
(-1.96235 0.0223443 -1.06776e-20)
(-1.98025 0.0248379 -9.69975e-21)
(-1.99999 0.0272134 0)
(-2.0215 0.0294462 -2.45298e-20)
(-2.0447 0.0315133 1.48664e-20)
(-2.06949 0.0333939 7.04206e-21)
(-2.09574 0.0350691 0)
(-2.12331 0.0365221 6.15703e-21)
(-2.15206 0.0377385 1.69221e-20)
(-2.18181 0.038706 0)
(-2.21237 0.039414 1.02847e-20)
(-2.24355 0.0398541 1.01701e-20)
(-2.27513 0.0400189 1.02379e-20)
(-2.30689 0.0399028 0)
(-2.3386 0.0395016 0)
(-2.37002 0.0388127 0)
(-2.4009 0.0378352 -5.65289e-21)
(-2.431 0.0365711 -6.98159e-21)
(-2.46006 0.0350252 0)
(-2.48783 0.0332061 -1.51872e-20)
(-2.51406 0.0311265 -1.64288e-20)
(-2.53849 0.0288033 0)
(-2.56088 0.0262567 -2.0114e-20)
(-2.58101 0.0235082 -4.15967e-20)
(-2.59863 0.0205768 2.32623e-20)
(-2.61354 0.0174751 2.33559e-20)
(-2.62551 0.0142087 0)
(-2.63432 0.0107666 0)
(-2.63977 0.00717138 0)
(-2.64176 0.00346953 3.1612e-20)
(-2.64011 -0.000313454 -3.19701e-20)
(-2.63466 -0.00416707 -6.80505e-20)
(-2.6253 -0.00807484 3.58662e-20)
(-2.61191 -0.0120197 -3.61555e-20)
(-2.59439 -0.0159844 -3.80164e-20)
(-2.57265 -0.019952 0)
(-2.54662 -0.0239068 0)
(-2.51626 -0.0278333 3.93072e-20)
(-2.48152 -0.0317155 0)
(-2.44238 -0.0355376 0)
(-2.39886 -0.0392849 -7.78392e-20)
(-2.35095 -0.0429441 0)
(-2.2987 -0.0465041 -3.69446e-20)
(-2.24214 -0.0499546 3.48851e-20)
(-2.18134 -0.053284 0)
(-2.11638 -0.0564787 -3.0814e-20)
(-2.04736 -0.0595279 0)
(-1.97438 -0.0624255 0)
(-1.89757 -0.0651671 1.89369e-20)
(-1.81705 -0.0677424 -2.96788e-20)
(-1.73298 -0.0701427 8.69886e-21)
(-1.64551 -0.0723715 0)
(-1.55479 -0.0744333 0)
(-1.461 -0.076317 9.40582e-21)
(-1.3643 -0.0780278 0)
(-1.26488 -0.0795881 2.60712e-20)
(-1.16289 -0.0809885 0)
(-1.05852 -0.0822431 0)
(-0.951947 -0.0833605 0)
(-0.84333 -0.0843392 7.18676e-20)
(-0.732846 -0.0852355 0)
(-0.620666 -0.0859845 -9.88535e-20)
(-0.506883 -0.0867005 0)
(-0.391773 -0.0872388 0)
(-0.275111 -0.0878337 2.89706e-19)
(-0.158235 -0.0883237 -3.25768e-19)
(-0.0370485 -0.0883959 0)
(0.0813646 -0.0887137 0)
(0.197757 -0.0880895 0)
(0.309948 -0.0842627 1.20004e-18)
(0.419317 -0.0743596 0)
(0.492211 -0.0535065 -8.71199e-19)
(-0.015878 -0.0572615 -2.09831e-21)
(-0.0335183 7.30019e-05 6.51615e-19)
(-0.0559285 0.0471897 0)
(-0.0816928 0.0859972 -2.80776e-19)
(-0.108566 0.118023 0)
(-0.136085 0.143878 0)
(-0.164712 0.163916 6.70138e-23)
(-0.194838 0.178736 9.28298e-20)
(-0.226602 0.189295 8.73356e-20)
(-0.25988 0.196543 8.25298e-20)
(-0.29442 0.201258 0)
(-0.329949 0.204024 0)
(-0.366216 0.205264 -7.02501e-20)
(-0.403004 0.205288 -1.33718e-19)
(-0.440135 0.204334 1.27534e-19)
(-0.477454 0.202589 0)
(-0.514831 0.200209 1.16757e-19)
(-0.552151 0.197323 -5.61184e-20)
(-0.589313 0.194036 0)
(-0.626235 0.190436 1.03847e-19)
(-0.662846 0.186596 5.02155e-20)
(-0.699088 0.182581 -9.69336e-20)
(-0.734915 0.178445 -4.70399e-20)
(-0.770288 0.174235 0)
(-0.805177 0.169991 8.84764e-20)
(-0.839561 0.165748 8.60709e-20)
(-0.873424 0.161533 0)
(-0.906753 0.157371 8.17652e-20)
(-0.939544 0.153281 0)
(-0.971793 0.149277 7.80318e-20)
(-1.0035 0.145372 3.82771e-20)
(-1.03468 0.141574 0)
(-1.06532 0.137888 0)
(-1.09545 0.134318 0)
(-1.12507 0.130864 0)
(-1.15418 0.127525 0)
(-1.18281 0.124299 0)
(-1.21096 0.12118 6.70799e-20)
(-1.23864 0.118163 -9.91453e-20)
(-1.26587 0.115242 0)
(-1.29265 0.112408 0)
(-1.31899 0.109652 0)
(-1.3449 0.106965 1.94166e-22)
(-1.37038 0.104338 6.16546e-20)
(-1.39544 0.101759 1.21507e-19)
(-1.42007 0.0992176 -1.19953e-19)
(-1.44428 0.0967036 -5.91341e-20)
(-1.46807 0.0942058 5.85861e-20)
(-1.49141 0.0917133 -1.74796e-22)
(-1.51432 0.0892154 5.70117e-20)
(-1.53676 0.0867017 0)
(-1.55874 0.0841622 5.56773e-20)
(-1.58023 0.0815875 -1.54049e-22)
(-1.60121 0.0789687 0)
(-1.62166 0.0762976 0)
(-1.64155 0.0735671 -5.31211e-20)
(-1.66086 0.0707706 0)
(-1.67956 0.067903 0)
(-1.69761 0.0649601 5.1132e-20)
(-1.71498 0.061939 1.01214e-19)
(-1.73164 0.058838 -5.00562e-20)
(-1.74755 0.055657 0)
(-1.76268 0.0523972 4.87386e-20)
(-1.77698 0.0490615 0)
(-1.79043 0.0456543 4.73096e-20)
(-1.80299 0.0421815 4.66786e-20)
(-1.81462 0.0386508 -9.19169e-20)
(-1.82529 0.0350715 -4.52532e-20)
(-1.83498 0.0314545 0)
(-1.84366 0.0278125 8.75161e-20)
(-1.85131 0.0241595 0)
(-1.8579 0.0205111 1.26511e-19)
(-1.86344 0.0168843 8.27691e-20)
(-1.86791 0.0132976 8.11024e-20)
(-1.87131 0.00977032 -7.93918e-20)
(-1.87364 0.00632301 1.16305e-19)
(-1.87493 0.00297713 0)
(-1.87519 -0.000245791 0)
(-1.87445 -0.00331873 -7.20406e-20)
(-1.87276 -0.00621143 -1.04891e-19)
(-1.87017 -0.00889658 0)
(-1.86676 -0.0113488 3.2762e-20)
(-1.86259 -0.0135438 0)
(-1.85774 -0.0154594 -9.24448e-20)
(-1.85232 -0.0170755 5.51364e-22)
(-1.84641 -0.0183744 -5.66899e-22)
(-1.84012 -0.0193407 5.53032e-20)
(-1.83358 -0.0199621 0)
(-1.82689 -0.0202288 -5.08889e-20)
(-1.82018 -0.0201338 5.90521e-22)
(-1.81358 -0.0196732 0)
(-1.80723 -0.0188456 0)
(-1.80126 -0.0176526 0)
(-1.7958 -0.0160989 3.93697e-20)
(-1.79099 -0.0141926 0)
(-1.78697 -0.011946 0)
(-1.78385 -0.00937371 0)
(-1.78177 -0.00649587 0)
(-1.78084 -0.00333837 0)
(-1.7812 6.88594e-05 2.7661e-20)
(-1.78294 0.00368926 0)
(-1.78616 0.00748646 2.37005e-20)
(-1.79093 0.0114234 2.19897e-20)
(-1.79733 0.0154617 -2.03488e-20)
(-1.80542 0.0195617 0)
(-1.81522 0.0236827 -1.72912e-20)
(-1.82678 0.0277832 0)
(-1.84008 0.0318218 -1.45563e-20)
(-1.85512 0.0357571 1.33187e-20)
(-1.87189 0.0395485 3.62251e-20)
(-1.89033 0.0431568 0)
(-1.91038 0.0465443 3.00231e-20)
(-1.93197 0.0496757 8.75003e-21)
(-1.95499 0.0525181 0)
(-1.97934 0.0550414 1.51388e-20)
(-2.00489 0.0572185 1.40162e-20)
(-2.03149 0.0590255 -2.01283e-20)
(-2.05897 0.0604419 0)
(-2.08717 0.06145 -6.53217e-21)
(-2.11589 0.0620354 -6.4752e-21)
(-2.14493 0.0621865 -1.85246e-20)
(-2.17407 0.0618941 0)
(-2.20311 0.0611521 0)
(-2.23179 0.0599571 0)
(-2.25991 0.058309 -6.70128e-21)
(-2.28721 0.0562112 0)
(-2.31345 0.0536717 0)
(-2.3384 0.0507031 9.86018e-21)
(-2.36181 0.0473235 1.06906e-20)
(-2.38345 0.0435562 0)
(-2.40308 0.0394285 0)
(-2.42046 0.0349696 2.72415e-20)
(-2.43536 0.0302069 0)
(-2.44756 0.0251613 -3.17454e-20)
(-2.45683 0.0198473 -3.32224e-20)
(-2.46295 0.0142644 0)
(-2.46578 0.00846249 0)
(-2.46517 0.00250351 4.02584e-20)
(-2.46097 -0.0035864 6.19916e-22)
(-2.45303 -0.00978634 5.5044e-22)
(-2.44122 -0.0160706 0)
(-2.42543 -0.0224119 9.65773e-20)
(-2.40556 -0.0287829 0)
(-2.38151 -0.0351559 0)
(-2.35323 -0.0415045 0)
(-2.32065 -0.0478022 -5.23649e-20)
(-2.28374 -0.0540215 0)
(-2.24247 -0.0601363 1.04629e-19)
(-2.19684 -0.0661221 5.14927e-20)
(-2.14687 -0.0719565 0)
(-2.09258 -0.07762 4.85693e-20)
(-2.03402 -0.0830948 0)
(-1.97125 -0.0883606 0)
(-1.90435 -0.0933948 1.21248e-19)
(-1.8334 -0.0981792 -7.32342e-20)
(-1.75853 -0.102704 0)
(-1.67985 -0.106962 -5.30131e-20)
(-1.59748 -0.110937 1.93084e-20)
(-1.51158 -0.114612 0)
(-1.4223 -0.117993 0)
(-1.32979 -0.121087 0)
(-1.23422 -0.123876 -3.73651e-20)
(-1.13576 -0.126364 0)
(-1.03459 -0.128587 -3.46615e-20)
(-0.930888 -0.130527 0)
(-0.824809 -0.132202 0)
(-0.716563 -0.133633 0)
(-0.60629 -0.134801 0)
(-0.49415 -0.135795 0)
(-0.380388 -0.136525 0)
(-0.264862 -0.137122 -2.68346e-19)
(-0.148305 -0.137516 0)
(-0.0293151 -0.137706 -1.69665e-19)
(0.0885167 -0.137553 5.42204e-19)
(0.2066 -0.136451 0)
(0.322506 -0.134489 0)
(0.436121 -0.131143 -4.31442e-19)
(0.545883 -0.124995 -4.5954e-19)
(0.654835 -0.113272 4.80449e-19)
(0.740665 -0.0921908 5.08006e-19)
(-0.0271335 -0.00144381 -2.25036e-18)
(-0.0513647 0.0615759 -7.60625e-19)
(-0.0775538 0.107156 -2.86276e-19)
(-0.106911 0.144698 -1.0608e-19)
(-0.136124 0.176223 0)
(-0.164756 0.202377 1.58738e-19)
(-0.193375 0.223467 -7.28746e-20)
(-0.222444 0.239873 0)
(-0.252211 0.252162 -6.40354e-20)
(-0.282756 0.260977 0)
(-0.314044 0.266934 1.14934e-19)
(-0.345976 0.270565 0)
(-0.378428 0.272309 5.20702e-20)
(-0.411271 0.272514 9.94224e-20)
(-0.444386 0.271463 -9.50986e-20)
(-0.477664 0.269385 0)
(-0.511006 0.266471 -8.74979e-20)
(-0.544325 0.262878 0)
(-0.577544 0.258741 0)
(-0.610595 0.254172 -7.82668e-20)
(-0.643422 0.249268 0)
(-0.675974 0.244113 5.35601e-23)
(-0.708209 0.238779 0)
(-0.740095 0.233328 0)
(-0.771601 0.227814 -6.69927e-23)
(-0.802706 0.222282 -6.53102e-20)
(-0.833391 0.216771 -6.35881e-20)
(-0.863644 0.211312 -6.21259e-20)
(-0.893456 0.205932 0)
(-0.92282 0.200652 -1.18618e-19)
(-0.951735 0.195488 0)
(-0.9802 0.190454 -5.68279e-20)
(-1.00822 0.185557 0)
(-1.03579 0.180803 0)
(-1.06293 0.176194 5.36865e-20)
(-1.08964 0.17173 0)
(-1.11592 0.167408 -5.18738e-20)
(-1.14179 0.163223 -8.80205e-23)
(-1.16724 0.159168 1.00576e-19)
(-1.1923 0.155236 -9.89778e-20)
(-1.21695 0.151415 0)
(-1.24122 0.147696 0)
(-1.2651 0.144066 -4.73383e-20)
(-1.2886 0.140512 0)
(-1.31172 0.137022 -4.62593e-20)
(-1.33445 0.13358 4.56704e-20)
(-1.3568 0.130173 4.51008e-20)
(-1.37875 0.126787 0)
(-1.40031 0.123407 -4.40112e-20)
(-1.42146 0.120019 -4.34874e-20)
(-1.44219 0.116609 8.58305e-20)
(-1.46249 0.113164 -4.24727e-20)
(-1.48234 0.109672 -4.19783e-20)